 Gaussian 03, Revision C.02,
 Gaussian 03:  AM64L-G03RevC.02 12-Jun-2004

 ----------------------------------------------------
 # B3LYP 6-311+G** geom=checkpoint freq pop=none test
 ----------------------------------------------------

 *** Vibrations CH3-C6H5 **** 0 1
 --------------------------------
 Z-Matrix taken from the checkpoint file:
 geom.chk
 Charge =  0 Multiplicity = 1

                         Standard orientation:
 ---------------------------------------------------------------------
 Center     Atomic     Atomic              Coordinates (Angstroms)
 Number     Number      Type              X           Y           Z
 ---------------------------------------------------------------------
    1          6             0        0.745020   -1.382058   -0.000045
    2          6             0       -0.477744   -0.705025   -0.000366
    3          6             0       -0.477746    0.705055   -0.000559
    4          6             0        0.745048    1.382046   -0.000153
    5          6             0        1.957997    0.695522    0.000138
    6          6             0        1.957991   -0.695547    0.000135
    7          6             0       -1.773007   -1.480293    0.000120
    8          1             0        2.892682    1.245175    0.000428
    9          1             0        0.745435    2.467593   -0.000202
   10          1             0        2.892666   -1.245215    0.000398
   11          6             0       -1.772965    1.480296    0.000148
   12          1             0        0.745412   -2.467600   -0.000058
   13          1             0       -1.585300   -2.555523    0.001799
   14          1             0       -2.383598   -1.246312    0.878730
   15          1             0       -2.382995   -1.248898   -0.879580
   16          1             0       -1.585318    2.555545   -0.000961
   17          1             0       -2.384715    1.246591   -0.877679
   18          1             0       -2.381835    1.248661    0.880622
 ---------------------------------------------------------------------

 SCF Done:  E(RB+HF-LYP) =  -310.965647903     A.U. after   12 cycles

 Isotropic polarizability for W=    0.000000       92.09 Bohr**3.
 End of Minotr Frequency-dependent properties file   721 does not exist.

                     1                      2                      3
                     A                      A                      A
 Frequencies --   126.3717               161.9864               173.6319
 Red. masses --     1.0708                 1.0737                 2.6227
 Frc consts  --     0.0101                 0.0166                 0.0466
 IR Inten    --     0.0000                 0.8706                 0.0000

                     4                      5                      6
                     A                      A                      A
 Frequencies --   256.4717               299.6704               411.0724
 Red. masses --     2.5837                 2.5118                 2.6543
 Frc consts  --     0.1001                 0.1329                 0.2643
 IR Inten    --     5.0639                 0.1350                 0.1689

                     7                      8                      9
                     A                      A                      A
 Frequencies --   447.6770               510.6406               521.5879
 Red. masses --     2.8191                 4.5857                 3.0618
 Frc consts  --     0.3329                 0.7045                 0.4908
 IR Inten    --     4.6524                 0.9009                 0.0000

                    10                     11                     12
                     A                      A                      A
 Frequencies --   590.2199               725.4714               745.3334
 Red. masses --     5.4794                 3.2630                 4.3201
 Frc consts  --     1.1246                 1.0118                 1.4140
 IR Inten    --     0.4407                 0.0000                 0.0599

                    13                     14                     15
                     A                      A                      A
 Frequencies --   754.7789               835.5630               877.3313
 Red. masses --     1.1669                 4.1589                 1.2748
 Frc consts  --     0.3917                 1.7108                 0.5781
 IR Inten    --    64.8833                 0.3151                 0.0000

                    16                     17                     18
                     A                      A                      A
 Frequencies --   949.7288               994.6505              1003.2488
 Red. masses --     1.3334                 1.2997                 1.4455
 Frc consts  --     0.7086                 0.7576                 0.8572
 IR Inten    --     0.3679                 0.0000                 4.8298

                    19                     20                     21
                     A                      A                      A
 Frequencies --  1010.6996              1045.6160              1070.5262
 Red. masses --     1.6726                 1.4422                 1.6166
 Frc consts  --     1.0067                 0.9290                 1.0915
 IR Inten    --     1.2245                 4.5304                 0.0009

                    22                     23                     24
                     A                      A                      A
 Frequencies --  1072.2889              1142.8942              1184.3873
 Red. masses --     2.1007                 1.7283                 1.1096
 Frc consts  --     1.4231                 1.3301                 0.9171
 IR Inten    --     8.4877                 3.4518                 0.0001

                    25                     26                     27
                     A                      A                      A
 Frequencies --  1203.4400              1241.2754              1315.5467
 Red. masses --     2.5750                 2.6461                 1.4539
 Frc consts  --     2.1973                 2.4021                 1.4825
 IR Inten    --     0.1422                 1.5594                 0.1099

                    28                     29                     30
                     A                      A                      A
 Frequencies --  1326.7494              1413.7293              1423.8578
 Red. masses --     6.0719                 1.2632                 1.2302
 Frc consts  --     6.2973                 1.4874                 1.4695
 IR Inten    --     0.0184                 1.0104                 2.3250

                    31                     32                     33
                     A                      A                      A
 Frequencies --  1465.9813              1480.5316              1494.9727
 Red. masses --     1.5175                 1.0442                 1.0436
 Frc consts  --     1.9214                 1.3486                 1.3742
 IR Inten    --     0.3956                 0.0001                18.0445

                    34                     35                     36
                     A                      A                      A
 Frequencies --  1495.4387              1502.3508              1521.7787
 Red. masses --     1.1847                 1.3681                 2.1468
 Frc consts  --     1.5610                 1.8193                 2.9292
 IR Inten    --     0.3875                21.5626                15.9726

                    37                     38                     39
                     A                      A                      A
 Frequencies --  1616.7073              1645.7092              3017.0368
 Red. masses --     5.6162                 5.7244                 1.0388
 Frc consts  --     8.6488                 9.1346                 5.5710
 IR Inten    --     0.3042                 3.6610                 9.0877

                    40                     41                     42
                     A                      A                      A
 Frequencies --  3017.6396              3059.1355              3061.2397
 Red. masses --     1.0378                 1.0997                 1.0996
 Frc consts  --     5.5679                 6.0632                 6.0713
 IR Inten    --    54.3319                38.2189                 0.0097

                    43                     44                     45
                     A                      A                      A
 Frequencies --  3100.7106              3102.0878              3152.4546
 Red. masses --     1.0993                 1.0990                 1.0859
 Frc consts  --     6.2271                 6.2311                 6.3580
 IR Inten    --    37.4147                 2.5087                14.0088

                    46                     47                     48
                     A                      A                      A
 Frequencies --  3156.8967              3170.9950              3185.7876
 Red. masses --     1.0886                 1.0917                 1.0975
 Frc consts  --     6.3921                 6.4673                 6.5625
 IR Inten    --     2.6084                28.7427                19.9959

 - Thermochemistry -
 -------------------
 Temperature   298.150 Kelvin.  Pressure   1.00000 Atm.
 Atom  1 has atomic number  6 and mass  12.00000

 Molecular mass:   106.07825 amu.
 Principal axes and moments of inertia in atomic units:
                           1         2         3
     EIGENVALUES --   571.10502 839.361521388.21277
           X            1.00000   0.00000  -0.00001
           Y            0.00000   1.00000   0.00001
           Z            0.00001  -0.00001   1.00000
 This molecule is an asymmetric top.
 Rotational symmetry number  1.
 Warning -- assumption of classical behavior for rotation
           may cause significant error
 Rotational temperatures (Kelvin)      0.15166     0.10319     0.06239
 Rotational constants (GHZ):           3.16009     2.15014     1.30005
 Zero-point vibrational energy     407232.2 (Joules/Mol)
                                   97.33082 (Kcal/Mol)
 Warning -- explicit consideration of  10 degrees of freedom as
           vibrations may cause significant error
 Vibrational temperatures:    181.82   233.06   249.82   369.01   431.16
          (Kelvin)            591.44   644.11   734.70   750.45   849.19
                             1043.79  1072.37  1085.96  1202.19  1262.28
                             1366.45  1431.08  1443.45  1454.17  1504.41
                             1540.25  1542.78  1644.37  1704.07  1731.48
                             1785.92  1892.78  1908.89  2034.04  2048.61
                             2109.22  2130.15  2150.93  2151.60  2161.55
                             2189.50  2326.08  2367.81  4340.84  4341.71
                             4401.41  4404.44  4461.23  4463.21  4535.67
                             4542.06  4562.35  4583.63

 Zero-point correction=                           0.155107 (Hartree/Particle)
 Thermal correction to Energy=                    0.162703
 Thermal correction to Enthalpy=                  0.163647
 Thermal correction to Gibbs Free Energy=         0.123542
 Sum of electronic and zero-point Energies=           -310.810541
 Sum of electronic and thermal Energies=              -310.802945
 Sum of electronic and thermal Enthalpies=            -310.802001
 Sum of electronic and thermal Free Energies=         -310.842105

                     E (Thermal)             CV                S
                      KCal/Mol        Cal/Mol-Kelvin    Cal/Mol-Kelvin
 Total                  102.097             29.124             84.407
 Electronic               0.000              0.000              0.000
 Translational            0.889              2.981             39.894
 Rotational               0.889              2.981             27.989
 Vibrational            100.320             23.162             16.524
 Vibration  1             0.611              1.927              3.001
 Vibration  2             0.622              1.889              2.526
 Vibration  3             0.627              1.875              2.396
 Vibration  4             0.666              1.752              1.686
 Vibration  5             0.692              1.674              1.419
 Vibration  6             0.775              1.446              0.923
 Vibration  7             0.807              1.366              0.803
 Vibration  8             0.866              1.226              0.632
 Vibration  9             0.877              1.202              0.606
 Vibration 10             0.948              1.053              0.467

 Optimization completed.
    -- Stationary point found.
 Normal termination of Gaussian 03 at Tue Apr 17 21:06:42 2012.
