 Gaussian 03, Revision C.02,
 Gaussian 03:  AM64L-G03RevC.02 12-Jun-2004

 ----------------------------------------------------
 # B3LYP 6-311+G** geom=checkpoint freq pop=none test
 ----------------------------------------------------

 *** Vibrations 1,2-xylene **** 0 1
 ----------------------------------
 Z-Matrix taken from the checkpoint file:
 geom.chk
 Charge =  0 Multiplicity = 1

                         Standard orientation:
 ---------------------------------------------------------------------
 Center     Atomic     Atomic              Coordinates (Angstroms)
 Number     Number      Type              X           Y           Z
 ---------------------------------------------------------------------
    1          6             0        1.209890    1.125610    0.000714
    2          6             0        1.220138   -0.275822   -0.000789
    3          6             0       -0.003232   -0.947182   -0.002223
    4          6             0       -1.227065   -0.264011   -0.001733
    5          6             0       -1.206856    1.131251   -0.000836
    6          6             0        0.006503    1.821219    0.000584
    7          6             0        2.526567   -1.033790    0.000841
    8          1             0       -2.141426    1.682744   -0.001971
    9          6             0       -2.529034   -1.029707    0.001614
   10          1             0        0.009341    2.905938    0.000601
   11          1             0       -0.007226   -2.034006   -0.004423
   12          1             0        2.149212    1.669833    0.000901
   13          1             0        3.113526   -0.808875    0.897008
   14          1             0        2.361127   -2.112683   -0.027506
   15          1             0        3.141357   -0.766034   -0.864081
   16          1             0       -3.386305   -0.355612   -0.051921
   17          1             0       -2.588202   -1.716245   -0.848508
   18          1             0       -2.632871   -1.630472    0.910864
 ---------------------------------------------------------------------

 SCF Done:  E(RB+HF-LYP) =  -310.966237175     A.U. after   13 cycles

 Isotropic polarizability for W=    0.000000       92.93 Bohr**3.
 End of Minotr Frequency-dependent properties file   721 does not exist.

 ******    1 imaginary frequencies (negative Signs) ******

                     1                      2                      3
                     A                      A                      A
 Frequencies --   -29.4964                13.5044               197.0415
 Red. masses --     1.0380                 1.0343                 2.8612
 Frc consts  --     0.0005                 0.0001                 0.0655
 IR Inten    --     0.1138                 0.1998                 4.3919

                     4                      5                      6
                     A                      A                      A
 Frequencies --   220.6658               274.6113               404.8427
 Red. masses --     2.9471                 2.5354                 2.4776
 Frc consts  --     0.0846                 0.1127                 0.2392
 IR Inten    --     0.0173                 0.5590                 0.3828

                     7                      8                      9
                     A                      A                      A
 Frequencies --   442.3749               522.8683               530.2038
 Red. masses --     2.7785                 5.0917                 3.0473
 Frc consts  --     0.3204                 0.8202                 0.5047
 IR Inten    --     5.5771                 0.6083                 0.0174

                    10                     11                     12
                     A                      A                      A
 Frequencies --   542.2158               708.3141               735.8461
 Red. masses --     4.7347                 2.3319                 5.5110
 Frc consts  --     0.8201                 0.6893                 1.7582
 IR Inten    --     0.0867                16.0786                 0.0668

                    13                     14                     15
                     A                      A                      A
 Frequencies --   783.8173               897.6104               905.0426
 Red. masses --     1.3227                 1.2907                 1.3155
 Frc consts  --     0.4788                 0.6127                 0.6348
 IR Inten    --    40.6408                 2.9839                 0.0049

                    16                     17                     18
                     A                      A                      A
 Frequencies --   918.7353               989.0016               999.0448
 Red. masses --     2.9323                 1.3188                 1.4191
 Frc consts  --     1.4583                 0.7600                 0.8345
 IR Inten    --     2.9004                 0.0150                 3.6085

                    19                     20                     21
                     A                      A                      A
 Frequencies --  1012.7334              1034.8860              1061.3733
 Red. masses --     4.2966                 1.7120                 1.5212
 Frc consts  --     2.5964                 1.0803                 1.0096
 IR Inten    --     0.2960                 1.2659                 0.2817

                    22                     23                     24
                     A                      A                      A
 Frequencies --  1061.8883              1120.8105              1178.8222
 Red. masses --     1.5511                 1.5696                 1.6313
 Frc consts  --     1.0305                 1.1617                 1.3356
 IR Inten    --     6.0691                 4.8598                 0.0325

                    25                     26                     27
                     A                      A                      A
 Frequencies --  1196.3316              1269.1824              1322.3566
 Red. masses --     1.1332                 3.6844                 2.7348
 Frc consts  --     0.9556                 3.4967                 2.8176
 IR Inten    --     1.2099                 0.4781                 0.5957

                    28                     29                     30
                     A                      A                      A
 Frequencies --  1345.5081              1413.1433              1415.6450
 Red. masses --     1.7743                 1.2392                 1.2611
 Frc consts  --     1.8926                 1.4580                 1.4890
 IR Inten    --     0.0290                 1.5921                 0.9647

                    31                     32                     33
                     A                      A                      A
 Frequencies --  1448.9667              1487.0040              1487.7181
 Red. masses --     2.1092                 1.0441                 1.0430
 Frc consts  --     2.6090                 1.3603                 1.3601
 IR Inten    --     0.1214                13.5913                 0.6070

                    34                     35                     36
                     A                      A                      A
 Frequencies --  1490.5535              1507.1538              1524.1041
 Red. masses --     1.1416                 1.2727                 2.0701
 Frc consts  --     1.4943                 1.7033                 2.8332
 IR Inten    --     1.0379                20.1024                16.9674

                    37                     38                     39
                     A                      A                      A
 Frequencies --  1627.7076              1646.7105              3022.2865
 Red. masses --     5.2919                 5.7117                 1.0371
 Frc consts  --     8.2606                 9.1253                 5.5813
 IR Inten    --     5.0921                24.0893                47.2651

                    40                     41                     42
                     A                      A                      A
 Frequencies --  3022.7974              3070.4911              3070.7410
 Red. masses --     1.0371                 1.1002                 1.1003
 Frc consts  --     5.5832                 6.1113                 6.1128
 IR Inten    --    17.3483                11.0805                23.8846

                    43                     44                     45
                     A                      A                      A
 Frequencies --  3100.0378              3100.6153              3143.8904
 Red. masses --     1.1004                 1.1002                 1.0896
 Frc consts  --     6.2304                 6.2320                 6.3451
 IR Inten    --    14.9591                20.5694                20.7966

                    46                     47                     48
                     A                      A                      A
 Frequencies --  3152.2733              3161.0973              3178.9967
 Red. masses --     1.0859                 1.0904                 1.0963
 Frc consts  --     6.3576                 6.4196                 6.5277
 IR Inten    --     0.9921                23.8960                20.9723

 - Thermochemistry -
 -------------------
 Temperature   298.150 Kelvin.  Pressure   1.00000 Atm.
 Atom  1 has atomic number  6 and mass  12.00000

 Molecular mass:   106.07825 amu.
 Principal axes and moments of inertia in atomic units:
                           1         2         3
     EIGENVALUES --   504.700131026.203421508.55707
           X            1.00000   0.00036  -0.00002
           Y           -0.00036   1.00000  -0.00005
           Z            0.00002   0.00005   1.00000
 This molecule is an asymmetric top.
 Rotational symmetry number  1.
 Warning -- assumption of classical behavior for rotation
           may cause significant error
 Rotational temperatures (Kelvin)      0.17161     0.08440     0.05742
 Rotational constants (GHZ):           3.57587     1.75866     1.19634
    1 imaginary frequencies ignored.
 Zero-point vibrational energy     405304.2 (Joules/Mol)
                                   96.87002 (Kcal/Mol)
 Warning -- explicit consideration of   9 degrees of freedom as
           vibrations may cause significant error
 Vibrational temperatures:     19.43   283.50   317.49   395.10   582.48
          (Kelvin)            636.48   752.29   762.84   780.13  1019.10
                             1058.72  1127.74  1291.46  1302.15  1321.85
                             1422.95  1437.40  1457.10  1488.97  1527.08
                             1527.82  1612.59  1696.06  1721.25  1826.07
                             1902.57  1935.88  2033.20  2036.79  2084.74
                             2139.46  2140.49  2144.57  2168.46  2192.84
                             2341.91  2369.25  4348.39  4349.13  4417.75
                             4418.11  4460.26  4461.09  4523.35  4535.41
                             4548.11  4573.86

 Zero-point correction=                           0.154372 (Hartree/Particle)
 Thermal correction to Energy=                    0.161637
 Thermal correction to Enthalpy=                  0.162581
 Thermal correction to Gibbs Free Energy=         0.121389
 Sum of electronic and zero-point Energies=           -310.811865
 Sum of electronic and thermal Energies=              -310.804600
 Sum of electronic and thermal Enthalpies=            -310.803656
 Sum of electronic and thermal Free Energies=         -310.844848

                     E (Thermal)             CV                S
                      KCal/Mol        Cal/Mol-Kelvin    Cal/Mol-Kelvin
 Total                  101.429             27.402             86.695
 Electronic               0.000              0.000              0.000
 Translational            0.889              2.981             39.894
 Rotational               0.889              2.981             28.148
 Vibrational             99.651             21.440             18.652
 Vibration  1             0.593              1.987              7.414
 Vibration  2             0.636              1.844              2.161
 Vibration  3             0.647              1.810              1.954
 Vibration  4             0.677              1.720              1.567
 Vibration  5             0.770              1.460              0.945
 Vibration  6             0.802              1.378              0.819
 Vibration  7             0.878              1.199              0.603
 Vibration  8             0.885              1.183              0.587
 Vibration  9             0.897              1.157              0.561

 Normal termination of Gaussian 03 at Tue Apr 17 22:40:33 2012.
