 Gaussian 03, Revision C.02,
 Gaussian 03:  AM64L-G03RevC.02 12-Jun-2004

 ----------------------------------------------------
 # B3LYP 6-311+G** geom=checkpoint freq pop=none test
 ----------------------------------------------------

 *** Vibrations 1,4-xylene **** 0 1
 ----------------------------------
 Z-Matrix taken from the checkpoint file:
 geom.chk
 Charge =  0 Multiplicity = 1

                         Standard orientation:
 ---------------------------------------------------------------------
 Center     Atomic     Atomic              Coordinates (Angstroms)
 Number     Number      Type              X           Y           Z
 ---------------------------------------------------------------------
    1          6             0       -0.698416    1.197470   -0.008028
    2          6             0       -1.420781    0.002936   -0.009069
    3          6             0       -0.694804   -1.194869   -0.008145
    4          6             0        0.696038   -1.194274   -0.001144
    5          6             0        1.420674    0.004338    0.003095
    6          6             0        0.697043    1.198073   -0.001143
    7          6             0       -2.930666   -0.003859    0.010564
    8          6             0        2.930851   -0.003048    0.006076
    9          1             0        1.228867   -2.140613   -0.002124
   10          1             0        1.228474    2.144703   -0.002090
   11          1             0       -1.226945   -2.141466   -0.014484
   12          1             0       -1.230531    2.143791   -0.014532
   13          1             0       -3.336875    0.961295   -0.300006
   14          1             0       -3.335253   -0.770408   -0.655921
   15          1             0       -3.311862   -0.213522    1.016057
   16          1             0        3.332086    1.012235    0.028766
   17          1             0        3.324362   -0.537559    0.876364
   18          1             0        3.328043   -0.499060   -0.885265
 ---------------------------------------------------------------------

 SCF Done:  E(RB+HF-LYP) =  -310.966068045     A.U. after   12 cycles

 Isotropic polarizability for W=    0.000000       93.20 Bohr**3.
 End of Minotr Frequency-dependent properties file   721 does not exist.

 ******    1 imaginary frequencies (negative Signs) ******

                     1                      2                      3
                     A                      A                      A
 Frequencies --   -25.0526                42.9307               135.7451
 Red. masses --     1.0485                 1.0454                 2.8283
 Frc consts  --     0.0004                 0.0011                 0.0307
 IR Inten    --     0.1426                 0.2643                 1.9690

                     4                      5                      6
                     A                      A                      A
 Frequencies --   285.3333               308.1607               386.1938
 Red. masses --     2.5496                 3.2039                 2.4925
 Frc consts  --     0.1223                 0.1793                 0.2190
 IR Inten    --     0.7509                 0.0036                 0.1332

                     7                      8                      9
                     A                      A                      A
 Frequencies --   415.5539               463.6339               495.0777
 Red. masses --     2.9005                 4.7398                 2.3617
 Frc consts  --     0.2951                 0.6003                 0.3411
 IR Inten    --     0.0108                 0.0581                21.0774

                    10                     11                     12
                     A                      A                      A
 Frequencies --   658.3678               720.2065               728.8685
 Red. masses --     6.7869                 3.1023                 3.7659
 Frc consts  --     1.7332                 0.9481                 1.1787
 IR Inten    --     0.0015                 0.0089                 0.0890

                    13                     14                     15
                     A                      A                      A
 Frequencies --   809.3506               836.1837               847.2015
 Red. masses --     1.3055                 5.2160                 1.2524
 Frc consts  --     0.5038                 2.1488                 0.5296
 IR Inten    --    43.1195                 0.1503                 0.0315

                    16                     17                     18
                     A                      A                      A
 Frequencies --   954.1735               977.3232               986.5838
 Red. masses --     1.2684                 1.3655                 1.4688
 Frc consts  --     0.6804                 0.7684                 0.8423
 IR Inten    --     0.0808                 0.0016                 0.2993

                    19                     20                     21
                     A                      A                      A
 Frequencies --  1021.4208              1039.6147              1059.7382
 Red. masses --     1.3766                 2.6559                 1.5350
 Frc consts  --     0.8462                 1.6912                 1.0157
 IR Inten    --     2.3261                 3.6045                 1.3777

                    22                     23                     24
                     A                      A                      A
 Frequencies --  1063.2963              1140.1916              1207.4817
 Red. masses --     1.5323                 1.3027                 1.1280
 Frc consts  --     1.0207                 0.9978                 0.9690
 IR Inten    --     9.1730                 7.5940                 0.0055

                    25                     26                     27
                     A                      A                      A
 Frequencies --  1221.4153              1236.8160              1324.1352
 Red. masses --     5.7453                 2.1892                 7.1380
 Frc consts  --     5.0500                 1.9731                 7.3738
 IR Inten    --     0.0348                 2.9233                 0.1606

                    28                     29                     30
                     A                      A                      A
 Frequencies --  1340.8749              1413.0268              1414.3969
 Red. masses --     1.3008                 1.2516                 1.2484
 Frc consts  --     1.3779                 1.4724                 1.4715
 IR Inten    --     0.3463                 0.7745                 0.5071

                    31                     32                     33
                     A                      A                      A
 Frequencies --  1434.8026              1486.7828              1488.4688
 Red. masses --     2.3446                 1.0436                 1.0618
 Frc consts  --     2.8439                 1.3592                 1.3860
 IR Inten    --     0.0199                 4.7857                 4.8637

                    34                     35                     36
                     A                      A                      A
 Frequencies --  1490.1185              1502.2421              1546.7019
 Red. masses --     1.0667                 1.1245                 2.5767
 Frc consts  --     1.3955                 1.4952                 3.6319
 IR Inten    --     4.4090                19.9856                29.1540

                    37                     38                     39
                     A                      A                      A
 Frequencies --  1612.9548              1656.1444              3019.6805
 Red. masses --     5.2408                 5.9032                 1.0396
 Frc consts  --     8.0332                 9.5396                 5.5853
 IR Inten    --     0.6800                 0.0050                38.4185

                    40                     41                     42
                     A                      A                      A
 Frequencies --  3021.7812              3069.3268              3071.0263
 Red. masses --     1.0370                 1.1004                 1.0962
 Frc consts  --     5.5789                 6.1077                 6.0914
 IR Inten    --    32.9688                16.5460                21.6011

                    43                     44                     45
                     A                      A                      A
 Frequencies --  3098.6075              3099.2563              3145.6820
 Red. masses --     1.1015                 1.1002                 1.0866
 Frc consts  --     6.2310                 6.2264                 6.3351
 IR Inten    --    16.8094                19.3459                12.2140

                    46                     47                     48
                     A                      A                      A
 Frequencies --  3148.9815              3162.9631              3167.4458
 Red. masses --     1.0869                 1.0940                 1.0946
 Frc consts  --     6.3498                 6.4485                 6.4700
 IR Inten    --    12.1615                41.4129                 5.3400

 - Thermochemistry -
 -------------------
 Temperature   298.150 Kelvin.  Pressure   1.00000 Atm.
 Atom  1 has atomic number  6 and mass  12.00000

 Molecular mass:   106.07825 amu.
 Principal axes and moments of inertia in atomic units:
                           1         2         3
     EIGENVALUES --   333.796131264.426981575.83739
           X            1.00000  -0.00005  -0.00024
           Y            0.00005   1.00000   0.00000
           Z            0.00024   0.00000   1.00000
 This molecule is an asymmetric top.
 Rotational symmetry number  1.
 Rotational temperatures (Kelvin)      0.25948     0.06850     0.05496
 Rotational constants (GHZ):           5.40672     1.42732     1.14526
    1 imaginary frequencies ignored.
 Zero-point vibrational energy     405272.5 (Joules/Mol)
                                   96.86244 (Kcal/Mol)
 Warning -- explicit consideration of   8 degrees of freedom as
           vibrations may cause significant error
 Vibrational temperatures:     61.77   195.31   410.53   443.37   555.65
          (Kelvin)            597.89   667.06   712.31   947.24  1036.22
                             1048.68  1164.47  1203.08  1218.93  1372.84
                             1406.15  1419.47  1469.59  1495.77  1524.73
                             1529.84  1640.48  1737.29  1757.34  1779.50
                             1905.13  1929.22  2033.03  2035.00  2064.36
                             2139.15  2141.57  2143.95  2161.39  2225.36
                             2320.68  2382.82  4344.64  4347.66  4416.07
                             4418.52  4458.20  4459.13  4525.93  4530.68
                             4550.79  4557.24

 Zero-point correction=                           0.154360 (Hartree/Particle)
 Thermal correction to Energy=                    0.161589
 Thermal correction to Enthalpy=                  0.162533
 Thermal correction to Gibbs Free Energy=         0.122377
 Sum of electronic and zero-point Energies=           -310.811708
 Sum of electronic and thermal Energies=              -310.804479
 Sum of electronic and thermal Enthalpies=            -310.803535
 Sum of electronic and thermal Free Energies=         -310.843691

                     E (Thermal)             CV                S
                      KCal/Mol        Cal/Mol-Kelvin    Cal/Mol-Kelvin
 Total                  101.398             27.421             84.514
 Electronic               0.000              0.000              0.000
 Translational            0.889              2.981             39.894
 Rotational               0.889              2.981             27.988
 Vibrational             99.621             21.459             16.632
 Vibration  1             0.595              1.980              5.119
 Vibration  2             0.614              1.918              2.863
 Vibration  3             0.683              1.701              1.501
 Vibration  4             0.698              1.658              1.372
 Vibration  5             0.755              1.500              1.015
 Vibration  6             0.779              1.436              0.907
 Vibration  7             0.821              1.331              0.756
 Vibration  8             0.851              1.261              0.671

 Normal termination of Gaussian 03 at Tue Apr 17 20:44:22 2012.
