 Gaussian 03, Revision C.02,
 Gaussian 03:  AM64L-G03RevC.02 12-Jun-2004

 ----------------------------------------------------
 # B3LYP 6-311+G** geom=checkpoint freq pop=none test
 ----------------------------------------------------

 *** Vibrations CO2 **** 0 1
 ---------------------------
 Redundant internal coordinates taken from checkpoint file:
 geom.chk
 Charge =  0 Multiplicity = 1

                         Standard orientation:
 ---------------------------------------------------------------------
 Center     Atomic     Atomic              Coordinates (Angstroms)
 Number     Number      Type              X           Y           Z
 ---------------------------------------------------------------------
    1          6             0        0.000000    0.000000    0.599677
    2          6             0        0.000000    0.000000   -0.599677
    3          1             0        0.000000    0.000000    1.662815
    4          1             0        0.000000    0.000000   -1.662815
 ---------------------------------------------------------------------

 SCF Done:  E(RB+HF-LYP) =  -77.3566458439     A.U. after    8 cycles

 Isotropic polarizability for W=    0.000000       19.29 Bohr**3.
 End of Minotr Frequency-dependent properties file   721 does not exist.

                     1                      2                      3
                    PIG                    PIG                    PIU
 Frequencies --   657.0597               657.0597               773.2940
 Red. masses --     1.5733                 1.5733                 1.0848
 Frc consts  --     0.4002                 0.4002                 0.3822
 IR Inten    --     0.0000                 0.0000               110.9900

                     4                      5                      6
                    PIU                    SGG                    SGU
 Frequencies --   773.2940              2062.3097              3419.8356
 Red. masses --     1.0848                 3.7995                 1.0848
 Frc consts  --     0.3822                 9.5210                 7.4751
 IR Inten    --   110.9900                 0.0000                93.2305

                     7
                    SGG
 Frequencies --  3522.5577
 Red. masses --     1.2310
 Frc consts  --     8.9993
 IR Inten    --     0.0000

 - Thermochemistry -
 -------------------
 Temperature   298.150 Kelvin.  Pressure   1.00000 Atm.
 Atom  1 has atomic number  6 and mass  12.00000

 Molecular mass:    26.01565 amu.
 Principal axes and moments of inertia in atomic units:
                           1         2         3
     EIGENVALUES --     0.00000  50.72296  50.72296
           X            0.00000   0.33009   0.94395
           Y            0.00000   0.94395  -0.33009
           Z            1.00000   0.00000   0.00000
 This molecule is a prolate symmetric top.
 Rotational symmetry number  2.
 Rotational temperature (Kelvin)      1.70759
 Rotational constant (GHZ):          35.580363
 Zero-point vibrational energy      70970.9 (Joules/Mol)
                                   16.96246 (Kcal/Mol)
 Vibrational temperatures:    945.36   945.36  1112.60  1112.60  2967.20
          (Kelvin)           4920.37  5068.17

 Zero-point correction=                           0.027031 (Hartree/Particle)
 Thermal correction to Energy=                    0.029828
 Thermal correction to Enthalpy=                  0.030772
 Thermal correction to Gibbs Free Energy=         0.008081
 Sum of electronic and zero-point Energies=            -77.329614
 Sum of electronic and thermal Energies=               -77.326818
 Sum of electronic and thermal Enthalpies=             -77.325874
 Sum of electronic and thermal Free Energies=          -77.348565

                     E (Thermal)             CV                S
                      KCal/Mol        Cal/Mol-Kelvin    Cal/Mol-Kelvin
 Total                   18.717              8.196             47.757
 Electronic               0.000              0.000              0.000
 Translational            0.889              2.981             35.704
 Rotational               0.592              1.987             10.869
 Vibrational             17.236              3.228              1.184

 Optimization completed.
    -- Stationary point found.
 Normal termination of Gaussian 03 at Tue Mar 20 15:18:56 2012.
