 Gaussian 03, Revision C.02,
 Gaussian 03:  AM64L-G03RevC.02 12-Jun-2004

 ----------------------------------------------------
 # B3LYP 6-311+G** geom=checkpoint freq pop=none test
 ----------------------------------------------------

 *** Vibrations NH3 **** 0 1
 ---------------------------
 Z-Matrix taken from the checkpoint file:
 geom.chk
 Charge =  0 Multiplicity = 1

                         Standard orientation:
 ---------------------------------------------------------------------
 Center     Atomic     Atomic              Coordinates (Angstroms)
 Number     Number      Type              X           Y           Z
 ---------------------------------------------------------------------
    1          6             0        0.000000    0.000000    0.664385
    2          6             0        0.000000    0.000000   -0.664385
    3          1             0        0.000000    0.922728    1.235156
    4          1             0        0.000000   -0.922728    1.235156
    5          1             0        0.000000    0.922728   -1.235156
    6          1             0        0.000000   -0.922728   -1.235156
 ---------------------------------------------------------------------

 SCF Done:  E(RB+HF-LYP) =  -78.6155126334     A.U. after    8 cycles

 Isotropic polarizability for W=    0.000000       24.98 Bohr**3.
 End of Minotr Frequency-dependent properties file   721 does not exist.

                     1                      2                      3
                    B2U                    B3U                    B2G
 Frequencies --   835.1558               974.2676               976.7729
 Red. masses --     1.0427                 1.1607                 1.5189
 Frc consts  --     0.4285                 0.6491                 0.8538
 IR Inten    --     0.7917               116.5195                 0.0000

                     4                      5                      6
                    AU                     B3G                    AG
 Frequencies --  1057.8758              1238.3424              1377.6422
 Red. masses --     1.0078                 1.5262                 1.2234
 Frc consts  --     0.6645                 1.3789                 1.3680
 IR Inten    --     0.0000                 0.0000                 0.0000

                     7                      8                      9
                    B1U                    AG                     B1U
 Frequencies --  1471.6755              1684.1460              3122.4956
 Red. masses --     1.1120                 3.1407                 1.0477
 Frc consts  --     1.4190                 5.2484                 6.0185
 IR Inten    --    10.3737                 0.0000                16.9754

                    10                     11                     12
                    AG                     B3G                    B2U
 Frequencies --  3137.0292              3194.4638              3222.7778
 Red. masses --     1.0730                 1.1141                 1.1176
 Frc consts  --     6.2211                 6.6986                 6.8393
 IR Inten    --     0.0000                 0.0000                24.9048

 - Thermochemistry -
 -------------------
 Temperature   298.150 Kelvin.  Pressure   1.00000 Atm.
 Atom  1 has atomic number  6 and mass  12.00000

 Molecular mass:    28.03130 amu.
 Principal axes and moments of inertia in atomic units:
                           1         2         3
     EIGENVALUES --    12.25716  59.79381  72.05097
           X            0.00000   0.00000   1.00000
           Y            0.00000   1.00000   0.00000
           Z            1.00000   0.00000   0.00000
 This molecule is an asymmetric top.
 Rotational symmetry number  4.
 Rotational temperatures (Kelvin)      7.06639     1.44854     1.20212
 Rotational constants (GHZ):         147.23977    30.18274    25.04812
 Zero-point vibrational energy     133339.6 (Joules/Mol)
                                   31.86893 (Kcal/Mol)
 Vibrational temperatures:   1201.60  1401.75  1405.36  1522.05  1781.70
          (Kelvin)           1982.12  2117.41  2423.11  4492.57  4513.48
                             4596.12  4636.85

 Zero-point correction=                           0.050786 (Hartree/Particle)
 Thermal correction to Energy=                    0.053829
 Thermal correction to Enthalpy=                  0.054773
 Thermal correction to Gibbs Free Energy=         0.029916
 Sum of electronic and zero-point Energies=            -78.564726
 Sum of electronic and thermal Energies=               -78.561684
 Sum of electronic and thermal Enthalpies=             -78.560740
 Sum of electronic and thermal Free Energies=          -78.585596

                     E (Thermal)             CV                S
                      KCal/Mol        Cal/Mol-Kelvin    Cal/Mol-Kelvin
 Total                   33.778              8.101             52.314
 Electronic               0.000              0.000              0.000
 Translational            0.889              2.981             35.927
 Rotational               0.889              2.981             15.853
 Vibrational             32.000              2.139              0.535

 Optimization completed.
    -- Stationary point found.
 Normal termination of Gaussian 03 at Sun Mar 18 11:44:34 2012.
