 Gaussian 03, Revision C.02,
 Gaussian 03:  AM64L-G03RevC.02 12-Jun-2004

 -----------------------------------------------
 # B3LYP 6-311+G** geom=checkpoint freq pop=none
 -----------------------------------------------

 *** C6H6 freq ****
 ------------------
 Z-Matrix taken from the checkpoint file:
 geom.chk
 Charge =  0 Multiplicity = 1

                         Standard orientation:
 ---------------------------------------------------------------------
 Center     Atomic     Atomic              Coordinates (Angstroms)
 Number     Number      Type              X           Y           Z
 ---------------------------------------------------------------------
    1          6             0        0.000000    1.394677    0.000000
    2          6             0        1.207826    0.697339    0.000000
    3          6             0        1.207826   -0.697339    0.000000
    4          6             0        0.000000   -1.394677    0.000000
    5          6             0       -1.207826   -0.697339    0.000000
    6          6             0       -1.207826    0.697339    0.000000
    7          1             0        0.000000    2.479097    0.000000
    8          1             0        2.146961    1.239548    0.000000
    9          1             0        2.146961   -1.239548    0.000000
   10          1             0        0.000000   -2.479097    0.000000
   11          1             0       -2.146961   -1.239548    0.000000
   12          1             0       -2.146961    1.239548    0.000000
 ---------------------------------------------------------------------

 SCF Done:  E(RB+HF-LYP) =  -232.311242375     A.U. after    8 cycles

 Isotropic polarizability for W=    0.000000       66.18 Bohr**3.
 End of Minotr Frequency-dependent properties file   721 does not exist.

                     1                      2                      3
                    E2U                    E2U                    E2G
 Frequencies --   410.1809               410.1809               622.3206
 Red. masses --     2.8449                 2.8449                 6.0915
 Frc consts  --     0.2820                 0.2820                 1.3900
 IR Inten    --     0.0000                 0.0000                 0.0000

                     4                      5                      6
                    E2G                    A2U                    B2G
 Frequencies --   622.3206               685.4676               718.6374
 Red. masses --     6.0915                 1.0848                 3.5308
 Frc consts  --     1.3900                 0.3003                 1.0743
 IR Inten    --     0.0000               124.8767                 0.0000

                     7                      8                      9
                    E1G                    E1G                    E2U
 Frequencies --   861.5384               861.5384               986.1796
 Red. masses --     1.2475                 1.2475                 1.3811
 Frc consts  --     0.5455                 0.5455                 0.7914
 IR Inten    --     0.0000                 0.0000                 0.0000

                    10                     11                     12
                    E2U                    A1G                    B2G
 Frequencies --   986.1796              1010.6071              1016.0671
 Red. masses --     1.3811                 6.0271                 1.2621
 Frc consts  --     0.7914                 3.6268                 0.7677
 IR Inten    --     0.0000                 0.0000                 0.0000

                    13                     14                     15
                    B1U                    E1U                    E1U
 Frequencies --  1022.4767              1058.9035              1058.9035
 Red. masses --     6.5341                 1.7095                 1.7095
 Frc consts  --     4.0248                 1.1294                 1.1294
 IR Inten    --     0.0000                 6.3625                 6.3639

                    16                     17                     18
                    B2U                    E2G                    E2G
 Frequencies --  1174.6884              1197.3350              1197.3350
 Red. masses --     1.0995                 1.1374                 1.1374
 Frc consts  --     0.8939                 0.9607                 0.9607
 IR Inten    --     0.0000                 0.0000                 0.0000

                    19                     20                     21
                    B2U                    A2G                    E1U
 Frequencies --  1335.5375              1381.2893              1510.2291
 Red. masses --     6.0222                 1.2475                 2.0036
 Frc consts  --     6.3287                 1.4023                 2.6924
 IR Inten    --     0.0000                 0.0000                 7.1843

                    22                     23                     24
                    E1U                    E2G                    E2G
 Frequencies --  1510.2291              1633.1670              1633.1670
 Red. masses --     2.0036                 5.3092                 5.3092
 Frc consts  --     2.6924                 8.3433                 8.3433
 IR Inten    --     7.1794                 0.0000                 0.0000

                    25                     26                     27
                    B1U                    E2G                    E2G
 Frequencies --  3156.4491              3166.0772              3166.0772
 Red. masses --     1.0840                 1.0876                 1.0876
 Frc consts  --     6.3631                 6.4236                 6.4236
 IR Inten    --     0.0000                 0.0000                 0.0000

                    28                     29                     30
                    E1U                    E1U                    A1G
 Frequencies --  3181.6717              3181.6717              3191.8548
 Red. masses --     1.0949                 1.0949                 1.0993
 Frc consts  --     6.5304                 6.5304                 6.5987
 IR Inten    --    37.5711                37.5738                 0.0000

 - Thermochemistry -
 -------------------
 Temperature   298.150 Kelvin.  Pressure   1.00000 Atm.
 Atom  1 has atomic number  6 and mass  12.00000

 Molecular mass:    78.04695 amu.
 Principal axes and moments of inertia in atomic units:
                           1         2         3
     EIGENVALUES --   316.41971 316.41971 632.83942
           X            0.99970  -0.02430   0.00000
           Y            0.02430   0.99970   0.00000
           Z            0.00000   0.00000   1.00000
 This molecule is an oblate symmetric top.
 Rotational symmetry number 12.
 Rotational temperatures (Kelvin)      0.27373     0.27373     0.13687
 Rotational constants (GHZ):           5.70363     5.70363     2.85182
 Zero-point vibrational energy     262869.1 (Joules/Mol)
                                   62.82722 (Kcal/Mol)
 Warning -- explicit consideration of   2 degrees of freedom as
           vibrations may cause significant error
 Vibrational temperatures:    590.16   590.16   895.38   895.38   986.23
          (Kelvin)           1033.96  1239.56  1239.56  1418.89  1418.89
                             1454.04  1461.89  1471.11  1523.52  1523.52
                             1690.11  1722.70  1722.70  1921.54  1987.36
                             2172.88  2172.88  2349.76  2349.76  4541.42
                             4555.27  4555.27  4577.71  4577.71  4592.36

 Zero-point correction=                           0.100122 (Hartree/Particle)
 Thermal correction to Energy=                    0.104524
 Thermal correction to Enthalpy=                  0.105468
 Thermal correction to Gibbs Free Energy=         0.075002
 Sum of electronic and zero-point Energies=           -232.211121
 Sum of electronic and thermal Energies=              -232.206719
 Sum of electronic and thermal Enthalpies=            -232.205775
 Sum of electronic and thermal Free Energies=         -232.236241

                     E (Thermal)             CV                S
                      KCal/Mol        Cal/Mol-Kelvin    Cal/Mol-Kelvin
 Total                   65.589             17.204             64.121
 Electronic               0.000              0.000              0.000
 Translational            0.889              2.981             38.979
 Rotational               0.889              2.981             20.714
 Vibrational             63.812             11.243              4.428
 Vibration  1             0.774              1.448              0.926
 Vibration  2             0.774              1.448              0.926

 Optimization completed.
    -- Stationary point found.
 Normal termination of Gaussian 03 at Tue Mar 20 14:58:34 2012.
