 Gaussian 03, Revision C.02,
 Gaussian 03:  AM64L-G03RevC.02 12-Jun-2004

 ----------------------------------------------------
 # B3LYP 6-311+G** geom=checkpoint freq pop=none test
 ----------------------------------------------------

 *** Vibrations NH3 **** 0 1
 ---------------------------
 Z-Matrix taken from the checkpoint file:
 geom.chk
 Charge =  0 Multiplicity = 1

                         Standard orientation:
 ---------------------------------------------------------------------
 Center     Atomic     Atomic              Coordinates (Angstroms)
 Number     Number      Type              X           Y           Z
 ---------------------------------------------------------------------
    1          6             0        0.000000    0.000000    1.751997
    2          6             0        0.000000    0.000000    0.426841
    3          1             0        0.000000    0.931876    2.300552
    4          1             0        0.000000   -0.931876    2.300552
    5         17             0        0.000000   -1.464079   -0.519828
    6         17             0        0.000000    1.464079   -0.519828
 ---------------------------------------------------------------------

 SCF Done:  E(RB+HF-LYP) =  -997.857260103     A.U. after   12 cycles

 Isotropic polarizability for W=    0.000000       47.74 Bohr**3.
 End of Minotr Frequency-dependent properties file   721 does not exist.

                     1                      2                      3
                    A1                     B2                     B1
 Frequencies --   301.4229               381.7622               476.3574
 Red. masses --    19.2301                 3.0137                 6.3952
 Frc consts  --     1.0294                 0.2588                 0.8550
 IR Inten    --     0.0020                 0.1609                 7.6597

                     4                      5                      6
                    A1                     A2                     B2
 Frequencies --   594.3995               688.0842               762.1070
 Red. masses --     9.1455                 1.0192                 3.3919
 Frc consts  --     1.9038                 0.2843                 1.1607
 IR Inten    --    17.1281                 0.0000               114.8821

                     7                      8                      9
                    B1                     B2                     A1
 Frequencies --   895.6871              1091.2256              1402.6822
 Red. masses --     1.3370                 1.8891                 1.1665
 Frc consts  --     0.6320                 1.3254                 1.3522
 IR Inten    --    54.1049               107.9099                 0.2066

                    10                     11                     12
                    A1                     A1                     B2
 Frequencies --  1658.7984              3165.6363              3261.0660
 Red. masses --     5.4551                 1.0595                 1.1187
 Frc consts  --     8.8439                 6.2555                 7.0092
 IR Inten    --    89.0405                 2.3125                 0.0747

 - Thermochemistry -
 -------------------
 Temperature   298.150 Kelvin.  Pressure   1.00000 Atm.
 Atom  1 has atomic number  6 and mass  12.00000

 Molecular mass:    95.95336 amu.
 Principal axes and moments of inertia in atomic units:
                           1         2         3
     EIGENVALUES --   243.77225 541.60087 785.37312
           X            0.00000   0.00000   1.00000
           Y            1.00000   0.00000   0.00000
           Z            0.00000   1.00000   0.00000
 This molecule is an asymmetric top.
 Rotational symmetry number  2.
 Rotational temperatures (Kelvin)      0.35531     0.15992     0.11028
 Rotational constants (GHZ):           7.40339     3.33223     2.29794
 Zero-point vibrational energy      87801.3 (Joules/Mol)
                                   20.98501 (Kcal/Mol)
 Warning -- explicit consideration of   4 degrees of freedom as
           vibrations may cause significant error
 Vibrational temperatures:    433.68   549.27   685.37   855.21   990.00
          (Kelvin)           1096.50  1288.69  1570.03  2018.14  2386.64
                             4554.64  4691.94

 Zero-point correction=                           0.033442 (Hartree/Particle)
 Thermal correction to Energy=                    0.037724
 Thermal correction to Enthalpy=                  0.038668
 Thermal correction to Gibbs Free Energy=         0.005992
 Sum of electronic and zero-point Energies=           -997.823818
 Sum of electronic and thermal Energies=              -997.819536
 Sum of electronic and thermal Enthalpies=            -997.818592
 Sum of electronic and thermal Free Energies=         -997.851268

                     E (Thermal)             CV                S
                      KCal/Mol        Cal/Mol-Kelvin    Cal/Mol-Kelvin
 Total                   23.672             13.996             68.771
 Electronic               0.000              0.000              0.000
 Translational            0.889              2.981             39.595
 Rotational               0.889              2.981             24.764
 Vibrational             21.894              8.035              4.412
 Vibration  1             0.693              1.671              1.409
 Vibration  2             0.751              1.509              1.032
 Vibration  3             0.833              1.303              0.720
 Vibration  4             0.952              1.044              0.459

 Optimization completed.
    -- Stationary point found.
 Normal termination of Gaussian 03 at Sun Apr  1 15:27:15 2012.
