 Gaussian 03, Revision C.02,
 Gaussian 03:  AM64L-G03RevC.02 12-Jun-2004

 -------------------------------------------------
 # B3LYP 6-311+G** freq=readisotopes pop=none test
 -------------------------------------------------

 -------------
 *** H2CO ****
 -------------
 Symbolic Z-matrix:
 Charge =  0 Multiplicity = 1

                         Standard orientation:
 ---------------------------------------------------------------------
 Center     Atomic     Atomic              Coordinates (Angstroms)
 Number     Number      Type              X           Y           Z
 ---------------------------------------------------------------------
    1          1             0        0.863150   -1.068848    0.000000
    2          8             0       -0.046471   -0.757847    0.000000
    3          6             0       -0.046471    0.665741    0.000000
    4          1             0       -1.090544    0.979687    0.000000
    5          1             0        0.438996    1.078745    0.892868
    6          1             0        0.438996    1.078745   -0.892868
 ---------------------------------------------------------------------

 SCF Done:  E(RB+HF-LYP) =  -115.764943581     A.U. after   10 cycles

 Isotropic polarizability for W=    0.000000       18.70 Bohr**3.
 End of Minotr Frequency-dependent properties file   721 does not exist.

                     1                      2                      3
                    A"                     A'                     A"
 Frequencies --   281.6926               858.5475               901.6938
 Red. masses --     1.1419                 1.9939                 2.6006
 Frc consts  --     0.0534                 0.8659                 1.2458
 IR Inten    --   146.0018                23.1948                 1.5830

                     4                      5                      6
                    A'                     A"                     A'
 Frequencies --   992.0884              1080.8973              1083.1796
 Red. masses --     4.0290                 2.1824                 2.1533
 Frc consts  --     2.3364                 1.5023                 1.4886
 IR Inten    --    44.8670                 1.3718                 2.2673

                     7                      8                      9
                    A'                     A'                     A'
 Frequencies --  1147.0060              1293.3186              2144.6595
 Red. masses --     3.5071                 1.2592                 2.1148
 Frc consts  --     2.7185                 1.2409                 5.7310
 IR Inten    --    48.8133                34.4747                44.0649

                    10                     11                     12
                    A"                     A'                     A'
 Frequencies --  2253.0058              2305.7225              3846.7506
 Red. masses --     2.3900                 2.3842                 1.0669
 Frc consts  --     7.1478                 7.4682                 9.3013
 IR Inten    --    37.2579                17.3612                30.9229

 - Thermochemistry -
 -------------------
 Temperature   298.150 Kelvin.  Pressure   1.00000 Atm.
 Atom  1 has atomic number  1 and mass   1.00783

 Molecular mass:    35.04505 amu.
 Principal axes and moments of inertia in atomic units:
                           1         2         3
     EIGENVALUES --    25.43849  91.07291  93.57561
           X           -0.05202   0.99865   0.00000
           Y            0.99865   0.05202   0.00000
           Z            0.00000   0.00000   1.00000
 This molecule is an asymmetric top.
 Rotational symmetry number  1.
 Rotational temperatures (Kelvin)      3.40483     0.95104     0.92560
 Rotational constants (GHZ):          70.94529    19.81644    19.28645
 Zero-point vibrational energy     108791.8 (Joules/Mol)
                                   26.00185 (Kcal/Mol)
 Warning -- explicit consideration of   1 degrees of freedom as
           vibrations may cause significant error
 Vibrational temperatures:    405.29  1235.26  1297.33  1427.39  1555.17
          (Kelvin)           1558.45  1650.28  1860.79  3085.68  3241.57
                             3317.42  5534.61

 Zero-point correction=                           0.041437 (Hartree/Particle)
 Thermal correction to Energy=                    0.044954
 Thermal correction to Enthalpy=                  0.045898
 Thermal correction to Gibbs Free Energy=         0.017988
 Sum of electronic and zero-point Energies=           -115.723507
 Sum of electronic and thermal Energies=              -115.719990
 Sum of electronic and thermal Enthalpies=            -115.719046
 Sum of electronic and thermal Free Energies=         -115.746956

                     E (Thermal)             CV                S
                      KCal/Mol        Cal/Mol-Kelvin    Cal/Mol-Kelvin
 Total                   28.209             10.112             58.742
 Electronic               0.000              0.000              0.000
 Translational            0.889              2.981             36.593
 Rotational               0.889              2.981             20.011
 Vibrational             26.431              4.150              2.138
 Vibration  1             0.681              1.708              1.523

 Optimization completed.
    -- Stationary point found.
 Normal termination of Gaussian 03 at Wed Mar 21 14:54:31 2012.
