 Gaussian 03, Revision C.02,
 Gaussian 03:  AM64L-G03RevC.02 12-Jun-2004

 ----------------------------------------------------
 # B3LYP 6-311+G** geom=checkpoint freq pop=none test
 ----------------------------------------------------

 -----------------------------------
 No Z-matrix found on checkpoint file.
 Cartesian coordinates read from the checkpoint file:
 geom.chk
 Charge =  0 Multiplicity = 1

                         Standard orientation:
 ---------------------------------------------------------------------
 Center     Atomic     Atomic              Coordinates (Angstroms)
 Number     Number      Type              X           Y           Z
 ---------------------------------------------------------------------
    1          6             0        0.601282    1.748966    0.000000
    2          6             0        0.601282    0.410653    0.000000
    3          1             0        1.523415    2.317635    0.000000
    4          1             0       -0.324554    2.315867    0.000000
    5          6             0       -0.601282   -0.410653    0.000000
    6          1             0       -1.550043    0.122285    0.000000
    7          6             0       -0.601282   -1.748966    0.000000
    8          1             0        0.324554   -2.315867    0.000000
    9          1             0       -1.523415   -2.317635    0.000000
   10          1             0        1.550043   -0.122285    0.000000
 ---------------------------------------------------------------------

 SCF Done:  E(RB+HF-LYP) =  -156.040799473     A.U. after   10 cycles

 Isotropic polarizability for W=    0.000000       54.18 Bohr**3.
 End of Minotr Frequency-dependent properties file   721 does not exist.

                     1                      2                      3
                    AU                     BU                     AG
 Frequencies --   172.1483               298.9010               518.1986
 Red. masses --     2.6033                 2.1621                 2.6873
 Frc consts  --     0.0455                 0.1138                 0.4252
 IR Inten    --     0.7171                 2.6617                 0.0000

                     4                      5                      6
                    AU                     BG                     AG
 Frequencies --   534.4053               776.5843               898.7098
 Red. masses --     1.0774                 1.6286                 1.8187
 Frc consts  --     0.1813                 0.5787                 0.8655
 IR Inten    --    14.4339                 0.0000                 0.0000

                     7                      8                      9
                    BG                     AU                     BG
 Frequencies --   936.8348               937.5313               996.9076
 Red. masses --     1.2910                 1.3602                 1.2412
 Frc consts  --     0.6676                 0.7044                 0.7268
 IR Inten    --     0.0000                96.4606                 0.0000

                    10                     11                     12
                    BU                     AU                     AG
 Frequencies --  1003.5683              1051.5816              1226.1752
 Red. masses --     1.2005                 1.0979                 1.9772
 Frc consts  --     0.7124                 0.7153                 1.7514
 IR Inten    --     2.4548                37.9172                 0.0000

                    13                     14                     15
                    AG                     BU                     BU
 Frequencies --  1313.1267              1319.9765              1413.9940
 Red. masses --     1.3426                 1.2775                 1.2456
 Frc consts  --     1.3639                 1.3115                 1.4673
 IR Inten    --     0.0000                 2.1988                 4.1335

                    16                     17                     18
                    AG                     BU                     AG
 Frequencies --  1473.2782              1646.2776              1699.7147
 Red. masses --     1.2142                 3.5922                 4.4956
 Frc consts  --     1.5528                 5.7360                 7.6523
 IR Inten    --     0.0000                24.6260                 0.0000

                    19                     20                     21
                    AG                     BU                     AG
 Frequencies --  3123.9173              3131.9931              3135.2423
 Red. masses --     1.0755                 1.0590                 1.0726
 Frc consts  --     6.1837                 6.1206                 6.2120
 IR Inten    --     0.0000                18.7172                 0.0000

                    22                     23                     24
                    BU                     AG                     BU
 Frequencies --  3137.3116              3219.8010              3220.2468
 Red. masses --     1.0916                 1.1154                 1.1150
 Frc consts  --     6.3305                 6.8131                 6.8124
 IR Inten    --    13.4130                 0.0000                25.3943

 - Thermochemistry -
 -------------------
 Temperature   298.150 Kelvin.  Pressure   1.00000 Atm.
 Atom  1 has atomic number  6 and mass  12.00000

 Molecular mass:    54.04695 amu.
 Principal axes and moments of inertia in atomic units:
                           1         2         3
     EIGENVALUES --    42.52683 408.19482 450.72165
           X            0.38501   0.92291   0.00000
           Y            0.92291  -0.38501   0.00000
           Z            0.00000   0.00000   1.00000
 This molecule is an asymmetric top.
 Rotational symmetry number  2.
 Rotational temperatures (Kelvin)      2.03669     0.21219     0.19217
 Rotational constants (GHZ):          42.43771     4.42127     4.00411
 Zero-point vibrational energy     222424.2 (Joules/Mol)
                                   53.16066 (Kcal/Mol)
 Warning -- explicit consideration of   4 degrees of freedom as
           vibrations may cause significant error
 Vibrational temperatures:    247.68   430.05   745.57   768.89  1117.33
          (Kelvin)           1293.04  1347.89  1348.90  1434.33  1443.91
                             1512.99  1764.19  1889.29  1899.15  2034.42
                             2119.72  2368.62  2445.51  4494.61  4506.23
                             4510.91  4513.89  4632.57  4633.21

 Zero-point correction=                           0.084717 (Hartree/Particle)
 Thermal correction to Energy=                    0.089378
 Thermal correction to Enthalpy=                  0.090322
 Thermal correction to Gibbs Free Energy=         0.058912
 Sum of electronic and zero-point Energies=           -155.956083
 Sum of electronic and thermal Energies=              -155.951421
 Sum of electronic and thermal Enthalpies=            -155.950477
 Sum of electronic and thermal Free Energies=         -155.981887

                     E (Thermal)             CV                S
                      KCal/Mol        Cal/Mol-Kelvin    Cal/Mol-Kelvin
 Total                   56.086             15.804             66.108
 Electronic               0.000              0.000              0.000
 Translational            0.889              2.981             37.884
 Rotational               0.889              2.981             22.197
 Vibrational             54.308              9.842              6.027
 Vibration  1             0.626              1.877              2.412
 Vibration  2             0.692              1.676              1.423
 Vibration  3             0.873              1.210              0.614
 Vibration  4             0.889              1.174              0.577

 Optimization completed.
    -- Stationary point found.
 Normal termination of Gaussian 03 at Fri Dec 14 19:46:42 2012.
