 Gaussian 03, Revision C.02,
 Gaussian 03:  AM64L-G03RevC.02 12-Jun-2004

 ----------------------------------------------------
 # B3LYP 6-311+G** geom=checkpoint freq pop=none test
 ----------------------------------------------------

 *** Vibrations CH3-C6H5 **** 0 1
 --------------------------------
 Z-Matrix taken from the checkpoint file:
 geom.chk
 Charge =  0 Multiplicity = 1

                         Standard orientation:
 ---------------------------------------------------------------------
 Center     Atomic     Atomic              Coordinates (Angstroms)
 Number     Number      Type              X           Y           Z
 ---------------------------------------------------------------------
    1          6             0       -0.193988    1.200608   -0.009082
    2          6             0       -0.913058    0.000409   -0.011673
    3          6             0       -0.194371   -1.200491   -0.009284
    4          6             0        1.199147   -1.203666    0.002153
    5          6             0        1.902669   -0.000185    0.008731
    6          6             0        1.199946    1.203241    0.001944
    7          6             0       -2.423052    0.000123    0.009567
    8          1             0        2.986806   -0.000645    0.014496
    9          1             0        1.735534   -2.146322    0.001896
   10          1             0        1.736320    2.145924    0.001474
   11          1             0       -0.732547   -2.143297   -0.018037
   12          1             0       -0.731193    2.143962   -0.017604
   13          1             0       -2.829063    0.886699   -0.483294
   14          1             0       -2.828921   -0.882143   -0.491081
   15          1             0       -2.800700   -0.004403    1.038011
 ---------------------------------------------------------------------

 SCF Done:  E(RB+HF-LYP) =  -271.638813300     A.U. after   12 cycles

 Isotropic polarizability for W=    0.000000       79.59 Bohr**3.
 End of Minotr Frequency-dependent properties file   721 does not exist.

                     1                      2                      3
                     A                      A                      A
 Frequencies --    30.1356               208.4423               343.4055
 Red. masses --     1.0347                 3.0090                 2.5029
 Frc consts  --     0.0006                 0.0770                 0.1739
 IR Inten    --     0.2787                 2.3682                 0.3733

                     4                      5                      6
                     A                      A                      A
 Frequencies --   413.3783               475.9237               528.7417
 Red. masses --     2.8783                 2.6838                 5.0148
 Frc consts  --     0.2898                 0.3582                 0.8260
 IR Inten    --     0.0071                 9.8219                 0.5819

                     7                      8                      9
                     A                      A                      A
 Frequencies --   636.7674               711.2177               743.7281
 Red. masses --     6.3712                 2.0516                 1.4706
 Frc consts  --     1.5221                 0.6114                 0.4793
 IR Inten    --     0.0955                29.9731                52.5291

                    10                     11                     12
                     A                      A                      A
 Frequencies --   798.3432               853.9604               912.1701
 Red. masses --     4.5161                 1.2497                 1.3052
 Frc consts  --     1.6959                 0.5369                 0.6399
 IR Inten    --     0.8324                 0.0237                 0.5797

                    13                     14                     15
                     A                      A                      A
 Frequencies --   982.1666               999.6359              1002.4711
 Red. masses --     1.3739                 1.4365                 1.2882
 Frc consts  --     0.7809                 0.8458                 0.7627
 IR Inten    --     0.0012                 0.1409                 0.0322

                    16                     17                     18
                     A                      A                      A
 Frequencies --  1017.1065              1050.3074              1062.4546
 Red. masses --     6.1842                 2.2230                 1.5555
 Frc consts  --     3.7694                 1.4448                 1.0346
 IR Inten    --     0.0830                 3.7423                 8.0886

                    19                     20                     21
                     A                      A                      A
 Frequencies --  1110.3039              1181.0304              1203.0964
 Red. masses --     1.4659                 1.1107                 1.1404
 Frc consts  --     1.0648                 0.9128                 0.9726
 IR Inten    --     6.3289                 0.0518                 0.4479

                    22                     23                     24
                     A                      A                      A
 Frequencies --  1228.0351              1328.6290              1355.8519
 Red. masses --     2.9945                 4.9692                 1.3996
 Frc consts  --     2.6607                 5.1683                 1.5160
 IR Inten    --     1.0162                 0.0367                 0.0005

                    25                     26                     27
                     A                      A                      A
 Frequencies --  1414.0453              1468.3621              1490.0521
 Red. masses --     1.2483                 1.5975                 1.0494
 Frc consts  --     1.4706                 2.0293                 1.3728
 IR Inten    --     1.3325                 0.0118                 7.3103

                    28                     29                     30
                     A                      A                      A
 Frequencies --  1502.3756              1527.3948              1623.3641
 Red. masses --     1.2840                 2.2564                 5.2796
 Frc consts  --     1.7076                 3.1015                 8.1975
 IR Inten    --    13.4353                13.7626                 0.2554

                    31                     32                     33
                     A                      A                      A
 Frequencies --  1645.0449              3020.8128              3074.5002
 Red. masses --     5.6199                 1.0403                 1.0947
 Frc consts  --     8.9606                 5.5932                 6.0969
 IR Inten    --     9.1975                28.9094                19.3908

                    34                     35                     36
                     A                      A                      A
 Frequencies --  3100.2885              3152.8273              3154.3882
 Red. masses --     1.1023                 1.0860                 1.0877
 Frc consts  --     6.2424                 6.3601                 6.3763
 IR Inten    --    16.6837                 9.0304                 5.8982

                    37                     38                     39
                     A                      A                      A
 Frequencies --  3167.1265              3175.3235              3187.9578
 Red. masses --     1.0899                 1.0938                 1.0979
 Frc consts  --     6.4410                 6.4978                 6.5742
 IR Inten    --     7.0692                36.3771                14.2801

 - Thermochemistry -
 -------------------
 Temperature   298.150 Kelvin.  Pressure   1.00000 Atm.
 Atom  1 has atomic number  6 and mass  12.00000

 Molecular mass:    92.06260 amu.
 Principal axes and moments of inertia in atomic units:
                           1         2         3
     EIGENVALUES --   325.12566 717.652001031.55790
           X            1.00000   0.00001  -0.00039
           Y           -0.00001   1.00000   0.00000
           Z            0.00039   0.00000   1.00000
 This molecule is an asymmetric top.
 Rotational symmetry number  1.
 Rotational temperatures (Kelvin)      0.26640     0.12069     0.08396
 Rotational constants (GHZ):           5.55090     2.51479     1.74953
 Zero-point vibrational energy     334243.6 (Joules/Mol)
                                   79.88614 (Kcal/Mol)
 Warning -- explicit consideration of   6 degrees of freedom as
           vibrations may cause significant error
 Vibrational temperatures:     43.36   299.90   494.08   594.76   684.75
          (Kelvin)            760.74   916.17  1023.28  1070.06  1148.64
                             1228.66  1312.41  1413.12  1438.25  1442.33
                             1463.39  1511.16  1528.63  1597.48  1699.24
                             1730.99  1766.87  1911.60  1950.77  2034.49
                             2112.64  2143.85  2161.58  2197.58  2335.66
                             2366.85  4346.27  4423.51  4460.62  4536.21
                             4538.46  4556.78  4568.58  4586.75

 Zero-point correction=                           0.127307 (Hartree/Particle)
 Thermal correction to Energy=                    0.133547
 Thermal correction to Enthalpy=                  0.134491
 Thermal correction to Gibbs Free Energy=         0.096466
 Sum of electronic and zero-point Energies=           -271.511507
 Sum of electronic and thermal Energies=              -271.505266
 Sum of electronic and thermal Enthalpies=            -271.504322
 Sum of electronic and thermal Free Energies=         -271.542347

                     E (Thermal)             CV                S
                      KCal/Mol        Cal/Mol-Kelvin    Cal/Mol-Kelvin
 Total                   83.802             23.289             80.030
 Electronic               0.000              0.000              0.000
 Translational            0.889              2.981             39.472
 Rotational               0.889              2.981             26.978
 Vibrational             82.025             17.327             13.580
 Vibration  1             0.594              1.984              5.820
 Vibration  2             0.642              1.828              2.057
 Vibration  3             0.722              1.589              1.196
 Vibration  4             0.777              1.441              0.915
 Vibration  5             0.833              1.303              0.721
 Vibration  6             0.884              1.186              0.590

 1\1\GINC-PARIS24\Freq\RB3LYP\6-311+G(d,p)\C7H8\CHAQUIN\17-Apr-2012\1\\
 # B3LYP 6-311+G** GEOM=CHECKPOINT FREQ POP=NONE TEST\\*** Vibrations C
 H3-C6H5 **** 0 1\\0,1\C\C,1,cc2\C,2,cc3,1,ccc3\C,3,cc4,2,ccc4,1,dih4,0
 \C,4,cc5,3,ccc5,2,dih5,0\C,5,cc6,4,ccc6,3,dih6,0\C,2,cc7,3,ccc7,4,dih7
 ,0\H,5,hc8,4,hcc8,3,dih8,0\H,4,hc9,3,hcc9,2,dih9,0\H,6,hc10,5,hcc10,4,
 dih10,0\H,3,hc11,2,hcc11,1,dih11,0\H,1,hc12,2,hcc12,3,dih12,0\H,7,hc13
 ,2,hcc13,3,dih13,0\H,7,hc14,2,hcc14,3,dih14,0\H,7,hc15,2,hcc15,3,dih15
 ,0\\cc2=1.39912292\cc3=1.39952774\ccc3=118.17410075\cc4=1.39356834\ccc

 Normal termination of Gaussian 03 at Tue Apr 17 18:42:10 2012.
