 Gaussian 03, Revision C.02,
 Gaussian 03:  AM64L-G03RevC.02 12-Jun-2004

 ----------------------------------------------------
 # B3LYP 6-311+G** geom=checkpoint freq pop=none test
 ----------------------------------------------------

 *** Vibrations CH3COCH3 **** 0 1
 --------------------------------
 Redundant internal coordinates taken from checkpoint file:
 geom.chk
 Charge =  0 Multiplicity = 1

                         Standard orientation:
 ---------------------------------------------------------------------
 Center     Atomic     Atomic              Coordinates (Angstroms)
 Number     Number      Type              X           Y           Z
 ---------------------------------------------------------------------
    1          6             0       -1.290593   -0.612856   -0.002230
    2          6             0       -0.000033    0.184882   -0.000002
    3          8             0        0.000013    1.396459   -0.000003
    4          6             0        1.290597   -0.612889    0.002203
    5          1             0       -2.142608    0.054143   -0.126434
    6          1             0       -1.282745   -1.363138   -0.798702
    7          1             0       -1.389503   -1.154365    0.944700
    8          1             0        2.142512    0.054338    0.125977
    9          1             0        1.282987   -1.362674    0.799134
   10          1             0        1.389426   -1.154802   -0.944478
 ---------------------------------------------------------------------

 SCF Done:  E(RB+HF-LYP) =  -193.218188367     A.U. after   11 cycles

 Isotropic polarizability for W=    0.000000       40.17 Bohr**3.
 End of Minotr Frequency-dependent properties file   721 does not exist.

                     1                      2                      3
                     A                      A                      A
 Frequencies --    70.1888               130.9523               379.9844
 Red. masses --     1.0175                 1.1255                 2.1973
 Frc consts  --     0.0030                 0.0114                 0.1869
 IR Inten    --     0.0186                 0.0601                 1.5702

                     4                      5                      6
                     A                      A                      A
 Frequencies --   490.1140               535.7297               782.2742
 Red. masses --     1.9984                 3.6000                 3.5987
 Frc consts  --     0.2828                 0.6088                 1.2975
 IR Inten    --     0.4679                13.3157                 1.7757

                     7                      8                      9
                     A                      A                      A
 Frequencies --   883.6324               889.3831              1082.9486
 Red. masses --     1.2158                 1.5677                 1.5532
 Frc consts  --     0.5593                 0.7306                 1.0732
 IR Inten    --     0.1057                 8.8976                 0.0000

                    10                     11                     12
                     A                      A                      A
 Frequencies --  1115.6037              1232.1673              1385.4425
 Red. masses --     1.9747                 2.8091                 1.2260
 Frc consts  --     1.4480                 2.5128                 1.3865
 IR Inten    --     2.7380                75.7050                21.1043

                    13                     14                     15
                     A                      A                      A
 Frequencies --  1386.7309              1461.5783              1464.6535
 Red. masses --     1.3995                 1.0426                 1.0524
 Frc consts  --     1.5856                 1.3123                 1.3302
 IR Inten    --    61.6768                 0.9086                 8.2299

                    16                     17                     18
                     A                      A                      A
 Frequencies --  1471.9089              1487.5606              1786.0776
 Red. masses --     1.0654                 1.0471                 9.6939
 Frc consts  --     1.3600                 1.3652                18.2200
 IR Inten    --    23.5564                23.3445               209.5274

                    19                     20                     21
                     A                      A                      A
 Frequencies --  3024.1648              3030.9162              3079.6257
 Red. masses --     1.0375                 1.0376                 1.0981
 Frc consts  --     5.5904                 5.6158                 6.1362
 IR Inten    --     1.4501                 6.6659                 0.9542

                    22                     23                     24
                     A                      A                      A
 Frequencies --  3086.3327              3139.2876              3140.3084
 Red. masses --     1.0984                 1.1017                 1.1021
 Frc consts  --     6.1646                 6.3969                 6.4035
 IR Inten    --    19.7414                12.0607                 7.4746

 - Thermochemistry -
 -------------------
 Temperature   298.150 Kelvin.  Pressure   1.00000 Atm.
 Atom  1 has atomic number  6 and mass  12.00000

 Molecular mass:    58.04186 amu.
 Principal axes and moments of inertia in atomic units:
                           1         2         3
     EIGENVALUES --   177.69730 212.67153 368.10544
           X            1.00000   0.00002  -0.00064
           Y           -0.00002   1.00000   0.00000
           Z            0.00064   0.00000   1.00000
 This molecule is an asymmetric top.
 Rotational symmetry number  1.
 Rotational temperatures (Kelvin)      0.48742     0.40727     0.23530
 Rotational constants (GHZ):          10.15627     8.48605     4.90278
 Zero-point vibrational energy     218543.2 (Joules/Mol)
                                   52.23307 (Kcal/Mol)
 Warning -- explicit consideration of   5 degrees of freedom as
           vibrations may cause significant error
 Vibrational temperatures:    100.99   188.41   546.71   705.16   770.79
          (Kelvin)           1125.52  1271.35  1279.62  1558.12  1605.10
                             1772.81  1993.34  1995.19  2102.88  2107.31
                             2117.75  2140.27  2569.76  4351.09  4360.81
                             4430.89  4440.54  4516.73  4518.20

 Zero-point correction=                           0.083239 (Hartree/Particle)
 Thermal correction to Energy=                    0.088603
 Thermal correction to Enthalpy=                  0.089547
 Thermal correction to Gibbs Free Energy=         0.055151
 Sum of electronic and zero-point Energies=           -193.134950
 Sum of electronic and thermal Energies=              -193.129585
 Sum of electronic and thermal Enthalpies=            -193.128641
 Sum of electronic and thermal Free Energies=         -193.163037

                     E (Thermal)             CV                S
                      KCal/Mol        Cal/Mol-Kelvin    Cal/Mol-Kelvin
 Total                   55.599             16.853             72.393
 Electronic               0.000              0.000              0.000
 Translational            0.889              2.981             38.096
 Rotational               0.889              2.981             24.146
 Vibrational             53.822             10.892             10.150
 Vibration  1             0.598              1.968              4.148
 Vibration  2             0.612              1.922              2.932
 Vibration  3             0.750              1.513              1.039
 Vibration  4             0.846              1.272              0.683
 Vibration  5             0.891              1.171              0.575

 Normal termination of Gaussian 03 at Fri Dec  7 20:15:15 2012.
