 Gaussian 03, Revision C.02,
 Gaussian 03:  AM64L-G03RevC.02 12-Jun-2004

 ----------------------------------------------------
 # B3LYP 6-311+G** geom=checkpoint freq pop=none test
 ----------------------------------------------------

 *** Vibrations CH3-CO2-CH3 **** 0 1
 -----------------------------------
 Z-Matrix taken from the checkpoint file:
 geom.chk
 Charge =  0 Multiplicity = 1

                         Standard orientation:
 ---------------------------------------------------------------------
 Center     Atomic     Atomic              Coordinates (Angstroms)
 Number     Number      Type              X           Y           Z
 ---------------------------------------------------------------------
    1          6             0       -1.801577   -0.524920    0.000000
    2          1             0       -1.700868   -1.608556    0.000000
    3          6             0       -0.461811    0.167038    0.000000
    4          1             0       -2.362629   -0.203721   -0.880139
    5          1             0       -2.362629   -0.203721    0.880139
    6          8             0       -0.301021    1.362909    0.000000
    7          8             0        0.559714   -0.718313    0.000000
    8          6             0        1.883730   -0.152414    0.000000
    9          1             0        2.562614   -1.002260    0.000000
   10          1             0        2.035959    0.461632   -0.888654
   11          1             0        2.035959    0.461632    0.888654
 ---------------------------------------------------------------------

 SCF Done:  E(RB+HF-LYP) =  -268.474466547     A.U. after   12 cycles

 Isotropic polarizability for W=    0.000000       43.65 Bohr**3.
 End of Minotr Frequency-dependent properties file   721 does not exist.

 ******    1 imaginary frequencies (negative Signs) ******

                     1                      2                      3
                     A                      A                      A
 Frequencies --   -73.0365               130.4105               191.5713
 Red. masses --     1.0675                 1.0823                 2.9515
 Frc consts  --     0.0034                 0.0108                 0.0638
 IR Inten    --     1.1746                 0.6269                 7.6155

                     4                      5                      6
                     A                      A                      A
 Frequencies --   284.7233               424.7486               622.7821
 Red. masses --     3.1916                 3.2749                 2.7716
 Frc consts  --     0.1524                 0.3481                 0.6334
 IR Inten    --    13.2666                 6.3635                 6.4604

                     7                      8                      9
                     A                      A                      A
 Frequencies --   638.1747               852.1000               999.7920
 Red. masses --     4.2915                 3.7013                 2.6037
 Frc consts  --     1.0298                 1.5834                 1.5334
 IR Inten    --     4.9473                23.9261                 4.9638

                    10                     11                     12
                     A                      A                      A
 Frequencies --  1057.5085              1066.9683              1172.1770
 Red. masses --     2.8537                 1.7604                 1.2834
 Frc consts  --     1.8803                 1.1807                 1.0389
 IR Inten    --    55.6498                 8.4150                 0.8598

                    13                     14                     15
                     A                      A                      A
 Frequencies --  1206.8630              1256.3517              1397.1913
 Red. masses --     1.5032                 4.1122                 1.2665
 Frc consts  --     1.2900                 3.8242                 1.4567
 IR Inten    --     1.1807               375.2188                40.5116

                    16                     17                     18
                     A                      A                      A
 Frequencies --  1465.7986              1479.1046              1482.9785
 Red. masses --     1.1193                 1.0448                 1.1403
 Frc consts  --     1.4169                 1.3467                 1.4775
 IR Inten    --     4.8050                 5.9465                18.0395

                    19                     20                     21
                     A                      A                      A
 Frequencies --  1484.3831              1498.0963              1793.4150
 Red. masses --     1.0441                 1.0491                11.1638
 Frc consts  --     1.3555                 1.3872                21.1555
 IR Inten    --    12.6974                10.2848               293.7634

                    22                     23                     24
                     A                      A                      A
 Frequencies --  3051.0705              3053.1627              3114.5344
 Red. masses --     1.0297                 1.0355                 1.0999
 Frc consts  --     5.6475                 5.6875                 6.2862
 IR Inten    --    26.8656                 4.0117                 4.4176

                    25                     26                     27
                     A                      A                      A
 Frequencies --  3123.4310              3150.8409              3156.9197
 Red. masses --     1.1070                 1.1039                 1.1062
 Frc consts  --     6.3629                 6.4571                 6.4957
 IR Inten    --    19.8562                 7.8758                14.6397

 - Thermochemistry -
 -------------------
 Temperature   298.150 Kelvin.  Pressure   1.00000 Atm.
 Atom  1 has atomic number  6 and mass  12.00000

 Molecular mass:    74.03678 amu.
 Principal axes and moments of inertia in atomic units:
                           1         2         3
     EIGENVALUES --   174.95444 439.10497 591.53895
           X            0.99919   0.04027   0.00000
           Y           -0.04027   0.99919   0.00000
           Z            0.00000   0.00000   1.00000
 This molecule is an asymmetric top.
 Rotational symmetry number  1.
 Rotational temperatures (Kelvin)      0.49506     0.19725     0.14642
 Rotational constants (GHZ):          10.31549     4.11005     3.05093
    1 imaginary frequencies ignored.
 Zero-point vibrational energy     234199.5 (Joules/Mol)
                                   55.97502 (Kcal/Mol)
 Warning -- explicit consideration of   4 degrees of freedom as
           vibrations may cause significant error
 Vibrational temperatures:    187.63   275.63   409.65   611.12   896.04
          (Kelvin)            918.19  1225.98  1438.48  1521.52  1535.13
                             1686.50  1736.40  1807.61  2010.24  2108.95
                             2128.10  2133.67  2135.69  2155.42  2580.32
                             4389.80  4392.81  4481.11  4493.92  4533.35
                             4542.10

 Zero-point correction=                           0.089202 (Hartree/Particle)
 Thermal correction to Energy=                    0.094543
 Thermal correction to Enthalpy=                  0.095488
 Thermal correction to Gibbs Free Energy=         0.060760
 Sum of electronic and zero-point Energies=           -268.385265
 Sum of electronic and thermal Energies=              -268.379923
 Sum of electronic and thermal Enthalpies=            -268.378979
 Sum of electronic and thermal Free Energies=         -268.413707

                     E (Thermal)             CV                S
                      KCal/Mol        Cal/Mol-Kelvin    Cal/Mol-Kelvin
 Total                   59.327             17.492             73.091
 Electronic               0.000              0.000              0.000
 Translational            0.889              2.981             38.822
 Rotational               0.889              2.981             25.322
 Vibrational             57.549             11.530              8.947
 Vibration  1             0.612              1.923              2.940
 Vibration  2             0.634              1.852              2.213
 Vibration  3             0.683              1.702              1.505
 Vibration  4             0.787              1.416              0.876

 Optimization completed.
    -- Stationary point found.
 Normal termination of Gaussian 03 at Sun Apr  7 17:12:36 2013.
