 Gaussian 03, Revision C.02,
 Gaussian 03:  AM64L-G03RevC.02 12-Jun-2004

 ----------------------------------------------------
 # B3LYP 6-311+G** geom=checkpoint freq pop=none test
 ----------------------------------------------------

 *** Vibrations CH3-CN **** 0 1
 ------------------------------
 Z-Matrix taken from the checkpoint file:
 geom.chk
 Charge =  0 Multiplicity = 1

                         Standard orientation:
 ---------------------------------------------------------------------
 Center     Atomic     Atomic              Coordinates (Angstroms)
 Number     Number      Type              X           Y           Z
 ---------------------------------------------------------------------
    1          6             0        1.176322    0.000007    0.000000
    2          6             0       -0.280538    0.000121    0.000000
    3          7             0       -1.433171   -0.000057    0.000000
    4          1             0        1.552449   -0.512591    0.887566
    5          1             0        1.552449   -0.512621   -0.887548
    6          1             0        1.552595    1.024845   -0.000018
 ---------------------------------------------------------------------

 SCF Done:  E(RB+HF-LYP) =  -132.796157192     A.U. after   11 cycles

 Isotropic polarizability for W=    0.000000       26.89 Bohr**3.
 End of Minotr Frequency-dependent properties file   721 does not exist.

                     1                      2                      3
                     A                      A                      A
 Frequencies --   381.8739               381.9225               929.0312
 Red. masses --     3.8130                 3.8140                 4.6080
 Frc consts  --     0.3276                 0.3278                 2.3433
 IR Inten    --     0.1588                 0.1592                 1.5730

                     4                      5                      6
                     A                      A                      A
 Frequencies --  1060.8166              1060.9862              1411.1541
 Red. masses --     1.4457                 1.4455                 1.2312
 Frc consts  --     0.9586                 0.9587                 1.4446
 IR Inten    --     2.1311                 2.1219                 3.0338

                     7                      8                      9
                     A                      A                      A
 Frequencies --  1474.6279              1474.7131              2362.2852
 Red. masses --     1.0380                 1.0380                12.5579
 Frc consts  --     1.3299                 1.3301                41.2887
 IR Inten    --    12.1327                12.1464                11.8810

                    10                     11                     12
                     A                      A                      A
 Frequencies --  3047.5026              3117.4341              3117.8663
 Red. masses --     1.0336                 1.1021                 1.1021
 Frc consts  --     5.6558                 6.3103                 6.3121
 IR Inten    --     3.3889                 1.2362                 1.2297

 - Thermochemistry -
 -------------------
 Temperature   298.150 Kelvin.  Pressure   1.00000 Atm.
 Atom  1 has atomic number  6 and mass  12.00000

 Molecular mass:    41.02655 amu.
 Principal axes and moments of inertia in atomic units:
                           1         2         3
     EIGENVALUES --    11.34174 195.21200 195.21316
           X            1.00000  -0.00001   0.00000
           Y            0.00001   1.00000   0.00000
           Z            0.00000   0.00000   1.00000
 This molecule is an asymmetric top.
 Rotational symmetry number  1.
 Rotational temperatures (Kelvin)      7.63673     0.44369     0.44369
 Rotational constants (GHZ):         159.12383     9.24503     9.24498
 Zero-point vibrational energy     118551.2 (Joules/Mol)
                                   28.33442 (Kcal/Mol)
 Warning -- explicit consideration of   2 degrees of freedom as
           vibrations may cause significant error
 Vibrational temperatures:    549.43   549.50  1336.67  1526.28  1526.52
          (Kelvin)           2030.33  2121.66  2121.78  3398.80  4384.67
                             4485.29  4485.91

 Zero-point correction=                           0.045154 (Hartree/Particle)
 Thermal correction to Energy=                    0.048766
 Thermal correction to Enthalpy=                  0.049710
 Thermal correction to Gibbs Free Energy=         0.021137
 Sum of electronic and zero-point Energies=           -132.751003
 Sum of electronic and thermal Energies=              -132.747391
 Sum of electronic and thermal Enthalpies=            -132.746447
 Sum of electronic and thermal Free Energies=         -132.775020

                     E (Thermal)             CV                S
                      KCal/Mol        Cal/Mol-Kelvin    Cal/Mol-Kelvin
 Total                   30.601             10.340             60.136
 Electronic               0.000              0.000              0.000
 Translational            0.889              2.981             37.062
 Rotational               0.889              2.981             20.697
 Vibrational             28.824              4.378              2.378
 Vibration  1             0.751              1.509              1.032
 Vibration  2             0.751              1.509              1.032

 Optimization completed.
    -- Stationary point found.
 Normal termination of Gaussian 03 at Sun Apr  7 16:15:08 2013.
