 Gaussian 03, Revision C.02,
 Gaussian 03:  AM64L-G03RevC.02 12-Jun-2004

 ----------------------------------------------------
 # B3LYP 6-311+G** geom=checkpoint freq pop=none test
 ----------------------------------------------------

 *** Vibrations CH3-COCl **** 0 1
 --------------------------------
 Redundant internal coordinates taken from checkpoint file:
 geom.chk
 Charge =  0 Multiplicity = 1

                         Standard orientation:
 ---------------------------------------------------------------------
 Center     Atomic     Atomic              Coordinates (Angstroms)
 Number     Number      Type              X           Y           Z
 ---------------------------------------------------------------------
    1          6             0        1.390053   -0.172710   -0.000153
    2          6             0       -0.086752    0.121230   -0.000490
    3          8             0       -0.837716   -1.009319   -0.000073
    4          8             0       -0.578086    1.221670    0.000073
    5          1             0        1.595801   -1.241537   -0.015307
    6          1             0        1.835687    0.278366    0.889121
    7          1             0        1.842282    0.306230   -0.871106
    8          1             0       -1.767158   -0.732990    0.001150
 ---------------------------------------------------------------------

 SCF Done:  E(RB+HF-LYP) =  -229.164175745     A.U. after   11 cycles

 Isotropic polarizability for W=    0.000000       31.97 Bohr**3.
 End of Minotr Frequency-dependent properties file   721 does not exist.

 ******    1 imaginary frequencies (negative Signs) ******

                     1                      2                      3
                     A                      A                      A
 Frequencies --   -81.4935               429.8624               546.5798
 Red. masses --     1.0764                 2.9864                 1.5363
 Frc consts  --     0.0042                 0.3251                 0.2704
 IR Inten    --     1.5211                 4.1731                31.1201

                     4                      5                      6
                     A                      A                      A
 Frequencies --   582.9644               693.0774               854.0930
 Red. masses --     4.1825                 1.5777                 3.9262
 Frc consts  --     0.8375                 0.4465                 1.6875
 IR Inten    --    39.6535               109.9092                 5.9215

                     7                      8                      9
                     A                      A                      A
 Frequencies --  1012.3859              1068.1336              1198.1163
 Red. masses --     1.5847                 1.7498                 2.1638
 Frc consts  --     0.9569                 1.1762                 1.8301
 IR Inten    --    54.8193                 6.8722               266.8326

                    10                     11                     12
                     A                      A                      A
 Frequencies --  1334.2262              1402.3278              1479.6226
 Red. masses --     1.8374                 1.3167                 1.0471
 Frc consts  --     1.9271                 1.5255                 1.3507
 IR Inten    --    34.8428                46.5206                 8.9513

                    13                     14                     15
                     A                      A                      A
 Frequencies --  1480.8084              1814.6151              3053.6988
 Red. masses --     1.1024                 9.6401                 1.0355
 Frc consts  --     1.4242                18.7026                 5.6890
 IR Inten    --     6.4216               373.3291                 1.2286

                    16                     17                     18
                     A                      A                      A
 Frequencies --  3115.9284              3150.1312              3751.2053
 Red. masses --     1.0998                 1.1044                 1.0643
 Frc consts  --     6.2912                 6.4570                 8.8235
 IR Inten    --     3.1894                 7.4363                60.8294

 - Thermochemistry -
 -------------------
 Temperature   298.150 Kelvin.  Pressure   1.00000 Atm.
 Atom  1 has atomic number  6 and mass  12.00000

 Molecular mass:    60.02113 amu.
 Principal axes and moments of inertia in atomic units:
                           1         2         3
     EIGENVALUES --   158.87032 191.94039 339.65666
           X            0.99945   0.03319   0.00002
           Y           -0.03319   0.99945  -0.00003
           Z           -0.00002   0.00003   1.00000
 This molecule is an asymmetric top.
 Rotational symmetry number  1.
 Rotational temperatures (Kelvin)      0.54519     0.45125     0.25500
 Rotational constants (GHZ):          11.35984     9.40261     5.31343
    1 imaginary frequencies ignored.
 Zero-point vibrational energy     161303.1 (Joules/Mol)
                                   38.55237 (Kcal/Mol)
 Warning -- explicit consideration of   3 degrees of freedom as
           vibrations may cause significant error
 Vibrational temperatures:    618.48   786.41   838.75   997.18  1228.85
          (Kelvin)           1456.60  1536.80  1723.82  1919.65  2017.63
                             2128.84  2130.55  2610.82  4393.59  4483.12
                             4532.33  5397.14

 Zero-point correction=                           0.061437 (Hartree/Particle)
 Thermal correction to Energy=                    0.065202
 Thermal correction to Enthalpy=                  0.066146
 Thermal correction to Gibbs Free Energy=         0.035408
 Sum of electronic and zero-point Energies=           -229.102739
 Sum of electronic and thermal Energies=              -229.098974
 Sum of electronic and thermal Enthalpies=            -229.098030
 Sum of electronic and thermal Free Energies=         -229.128768

                     E (Thermal)             CV                S
                      KCal/Mol        Cal/Mol-Kelvin    Cal/Mol-Kelvin
 Total                   40.915             12.291             64.693
 Electronic               0.000              0.000              0.000
 Translational            0.889              2.981             38.196
 Rotational               0.889              2.981             23.853
 Vibrational             39.137              6.329              2.644
 Vibration  1             0.791              1.405              0.859
 Vibration  2             0.902              1.147              0.551
 Vibration  3             0.940              1.068              0.480

 Normal termination of Gaussian 03 at Sun Apr  7 18:34:21 2013.
