 Gaussian 03, Revision C.02,
 Gaussian 03:  AM64L-G03RevC.02 12-Jun-2004

 ----------------------------------------------------
 # B3LYP 6-311+G** geom=checkpoint freq pop=none test
 ----------------------------------------------------

 *** Vibrations CH3-COCl **** 0 1
 --------------------------------
 Z-Matrix taken from the checkpoint file:
 geom.chk
 Charge =  0 Multiplicity = 1

                         Standard orientation:
 ---------------------------------------------------------------------
 Center     Atomic     Atomic              Coordinates (Angstroms)
 Number     Number      Type              X           Y           Z
 ---------------------------------------------------------------------
    1          6             0        1.357669   -0.980502   -0.000014
    2          1             0        0.793150   -1.908003   -0.000529
    3          1             0        2.000060   -0.930496    0.882803
    4          1             0        2.001029   -0.929969   -0.882075
    5          6             0        0.473270    0.237762   -0.000037
    6          8             0        0.821785    1.366726    0.000010
    7         17             0       -1.314950   -0.159347    0.000001
 ---------------------------------------------------------------------

 SCF Done:  E(RB+HF-LYP) =  -613.523631892     A.U. after   12 cycles

 Isotropic polarizability for W=    0.000000       40.13 Bohr**3.
 End of Minotr Frequency-dependent properties file   721 does not exist.

 ******    1 imaginary frequencies (negative Signs) ******

                     1                      2                      3
                     A                      A                      A
 Frequencies --  -138.8211               356.7378               430.8941
 Red. masses --     1.0487                 3.6977                17.5245
 Frc consts  --     0.0119                 0.2773                 1.9171
 IR Inten    --     0.3823                 3.6242                27.0374

                     4                      5                      6
                     A                      A                      A
 Frequencies --   533.9050               585.6907               983.9503
 Red. masses --     3.1206                 4.1505                 3.3582
 Frc consts  --     0.5241                 0.8389                 1.9156
 IR Inten    --     2.3848               128.0927               114.4389

                     7                      8                      9
                     A                      A                      A
 Frequencies --  1030.0803              1094.8400              1388.1291
 Red. masses --     1.5870                 1.7855                 1.2074
 Frc consts  --     0.9921                 1.2610                 1.3707
 IR Inten    --     4.3672               140.6105                18.9746

                    10                     11                     12
                     A                      A                      A
 Frequencies --  1466.2828              1476.5590              1884.2635
 Red. masses --     1.0611                 1.0444                12.5270
 Frc consts  --     1.3442                 1.3416                26.2049
 IR Inten    --     8.5200                 9.9538               363.1906

                    13                     14                     15
                     A                      A                      A
 Frequencies --  3049.2161              3110.8384              3174.1916
 Red. masses --     1.0371                 1.1000                 1.1019
 Frc consts  --     5.6814                 6.2720                 6.5414
 IR Inten    --     0.3095                 0.8523                 2.0724

 - Thermochemistry -
 -------------------
 Temperature   298.150 Kelvin.  Pressure   1.00000 Atm.
 Atom  1 has atomic number  6 and mass  12.00000

 Molecular mass:    77.98724 amu.
 Principal axes and moments of inertia in atomic units:
                           1         2         3
     EIGENVALUES --   175.81002 380.11886 544.71870
           X            0.99503  -0.09957   0.00000
           Y            0.09957   0.99503   0.00000
           Z            0.00000   0.00000   1.00000
 This molecule is an asymmetric top.
 Rotational symmetry number  1.
 Rotational temperatures (Kelvin)      0.49266     0.22786     0.15901
 Rotational constants (GHZ):          10.26529     4.74783     3.31316
    1 imaginary frequencies ignored.
 Zero-point vibrational energy     123009.5 (Joules/Mol)
                                   29.39997 (Kcal/Mol)
 Warning -- explicit consideration of   4 degrees of freedom as
           vibrations may cause significant error
 Vibrational temperatures:    513.27   619.96   768.17   842.68  1415.68
          (Kelvin)           1482.05  1575.23  1997.21  2109.65  2124.44
                             2711.03  4387.14  4475.80  4566.95

 Zero-point correction=                           0.046852 (Hartree/Particle)
 Thermal correction to Energy=                    0.050804
 Thermal correction to Enthalpy=                  0.051748
 Thermal correction to Gibbs Free Energy=         0.019716
 Sum of electronic and zero-point Energies=           -613.476780
 Sum of electronic and thermal Energies=              -613.472828
 Sum of electronic and thermal Enthalpies=            -613.471883
 Sum of electronic and thermal Free Energies=         -613.503916

                     E (Thermal)             CV                S
                      KCal/Mol        Cal/Mol-Kelvin    Cal/Mol-Kelvin
 Total                   31.880             12.483             67.418
 Electronic               0.000              0.000              0.000
 Translational            0.889              2.981             38.977
 Rotational               0.889              2.981             25.102
 Vibrational             30.103              6.521              3.340
 Vibration  1             0.732              1.561              1.136
 Vibration  2             0.792              1.403              0.856
 Vibration  3             0.889              1.175              0.579
 Vibration  4             0.943              1.062              0.475

 Optimization completed.
    -- Stationary point found.
 Normal termination of Gaussian 03 at Sun Apr  7 16:38:32 2013.
