 Gaussian 03, Revision C.02,
 Gaussian 03:  AM64L-G03RevC.02 12-Jun-2004

 ----------------------------------------------------
 # B3LYP 6-311+G** geom=checkpoint freq pop=none test
 ----------------------------------------------------

 *** Vibrations CH3-CN **** 0 1
 ------------------------------
 Z-Matrix taken from the checkpoint file:
 geom.chk
 Charge =  0 Multiplicity = 1

                         Standard orientation:
 ---------------------------------------------------------------------
 Center     Atomic     Atomic              Coordinates (Angstroms)
 Number     Number      Type              X           Y           Z
 ---------------------------------------------------------------------
    1          6             0        0.708880   -0.000011    0.017632
    2          1             0        1.082844   -0.000293    1.052536
    3          1             0        1.116299   -0.879074   -0.487592
    4          1             0        1.116556    0.879201   -0.487199
    5          7             0       -0.750038    0.000011   -0.118396
    6          1             0       -1.159502   -0.816250    0.322627
    7          1             0       -1.159209    0.816411    0.322607
 ---------------------------------------------------------------------

 SCF Done:  E(RB+HF-LYP) =  -95.8938401734     A.U. after   10 cycles

 Isotropic polarizability for W=    0.000000       23.32 Bohr**3.
 End of Minotr Frequency-dependent properties file   721 does not exist.

                     1                      2                      3
                     A                      A                      A
 Frequencies --   302.4753               819.5546               973.1129
 Red. masses --     1.0290                 1.2187                 1.0489
 Frc consts  --     0.0555                 0.4823                 0.5852
 IR Inten    --    38.6246               177.3001                 0.1319

                     4                      5                      6
                     A                      A                      A
 Frequencies --  1056.0635              1162.5854              1341.7059
 Red. masses --     3.7316                 1.3777                 1.3559
 Frc consts  --     2.4520                 1.0971                 1.4381
 IR Inten    --    13.0507                 6.3822                 0.0240

                     7                      8                      9
                     A                      A                      A
 Frequencies --  1459.6286              1497.7428              1517.0261
 Red. masses --     1.1589                 1.0525                 1.0332
 Frc consts  --     1.4548                 1.3911                 1.4010
 IR Inten    --     2.2760                 8.0614                 4.9132

                    10                     11                     12
                     A                      A                      A
 Frequencies --  1668.2271              2962.4169              3057.1361
 Red. masses --     1.0851                 1.0584                 1.0748
 Frc consts  --     1.7792                 5.4724                 5.9184
 IR Inten    --    30.6055               101.0058                35.0904

                    13                     14                     15
                     A                      A                      A
 Frequencies --  3093.1758              3507.5312              3585.0973
 Red. masses --     1.1031                 1.0489                 1.0941
 Frc consts  --     6.2183                 7.6030                 8.2851
 IR Inten    --    33.0083                 0.4421                 1.6976

 - Thermochemistry -
 -------------------
 Temperature   298.150 Kelvin.  Pressure   1.00000 Atm.
 Atom  1 has atomic number  6 and mass  12.00000

 Molecular mass:    31.04220 amu.
 Principal axes and moments of inertia in atomic units:
                           1         2         3
     EIGENVALUES --    17.37404  79.51991  82.86576
           X            0.99933   0.00001  -0.03648
           Y           -0.00001   1.00000   0.00001
           Z            0.03648  -0.00001   0.99933
 This molecule is an asymmetric top.
 Rotational symmetry number  1.
 Rotational temperatures (Kelvin)      4.98524     1.08921     1.04523
 Rotational constants (GHZ):         103.87572    22.69546    21.77909
 Zero-point vibrational energy     167498.0 (Joules/Mol)
                                   40.03298 (Kcal/Mol)
 Warning -- explicit consideration of   1 degrees of freedom as
           vibrations may cause significant error
 Vibrational temperatures:    435.19  1179.15  1400.09  1519.44  1672.70
          (Kelvin)           1930.41  2100.08  2154.92  2182.66  2400.20
                             4262.25  4398.53  4450.38  5046.55  5158.15

 Zero-point correction=                           0.063797 (Hartree/Particle)
 Thermal correction to Energy=                    0.067236
 Thermal correction to Enthalpy=                  0.068181
 Thermal correction to Gibbs Free Energy=         0.040863
 Sum of electronic and zero-point Energies=            -95.830044
 Sum of electronic and thermal Energies=               -95.826604
 Sum of electronic and thermal Enthalpies=             -95.825660
 Sum of electronic and thermal Free Energies=          -95.852977

                     E (Thermal)             CV                S
                      KCal/Mol        Cal/Mol-Kelvin    Cal/Mol-Kelvin
 Total                   42.191              9.611             57.495
 Electronic               0.000              0.000              0.000
 Translational            0.889              2.981             36.231
 Rotational               0.889              2.981             19.377
 Vibrational             40.414              3.649              1.888
 Vibration  1             0.694              1.669              1.403

 Optimization completed.
    -- Stationary point found.
 Normal termination of Gaussian 03 at Sun Apr  7 16:24:10 2013.
