 Gaussian 03, Revision C.02,
 Gaussian 03:  AM64L-G03RevC.02 12-Jun-2004

 ----------------------------------------------------
 # B3LYP 6-311+G** geom=checkpoint freq pop=none test
 ----------------------------------------------------

 *** Vibrations CH3OH **** 0 1
 -----------------------------
 Z-Matrix taken from the checkpoint file:
 geom.chk
 Charge =  0 Multiplicity = 1

                         Standard orientation:
 ---------------------------------------------------------------------
 Center     Atomic     Atomic              Coordinates (Angstroms)
 Number     Number      Type              X           Y           Z
 ---------------------------------------------------------------------
    1          1             0        0.863150   -1.068848    0.000000
    2          8             0       -0.046471   -0.757847    0.000000
    3          6             0       -0.046471    0.665741    0.000000
    4          1             0       -1.090544    0.979687    0.000000
    5          1             0        0.438996    1.078745    0.892868
    6          1             0        0.438996    1.078745   -0.892868
 ---------------------------------------------------------------------

 SCF Done:  E(RB+HF-LYP) =  -115.764943581     A.U. after   10 cycles

 Isotropic polarizability for W=    0.000000       18.70 Bohr**3.
 End of Minotr Frequency-dependent properties file   721 does not exist.

                     1                      2                      3
                    A"                     A'                     A'
 Frequencies --   297.4309              1043.2523              1070.7510
 Red. masses --     1.0718                 3.3049                 1.3290
 Frc consts  --     0.0559                 2.1193                 0.8977
 IR Inten    --   135.9585               128.7338                 0.6418

                     4                      5                      6
                    A"                     A'                     A'
 Frequencies --  1168.6327              1356.0362              1480.3416
 Red. masses --     1.2678                 1.2977                 1.1304
 Frc consts  --     1.0201                 1.4059                 1.4595
 IR Inten    --     0.2110                20.9420                 5.0677

                     7                      8                      9
                    A"                     A'                     A'
 Frequencies --  1495.1691              1506.2768              2989.3408
 Red. masses --     1.0465                 1.0440                 1.0361
 Frc consts  --     1.3784                 1.3956                 5.4551
 IR Inten    --     3.5919                 5.1481                68.2925

                    10                     11                     12
                    A"                     A'                     A'
 Frequencies --  3036.3639              3112.3292              3846.8612
 Red. masses --     1.1056                 1.0969                 1.0668
 Frc consts  --     6.0057                 6.2604                 9.3017
 IR Inten    --    63.7474                27.3879                30.3408

 - Thermochemistry -
 -------------------
 Temperature   298.150 Kelvin.  Pressure   1.00000 Atm.
 Atom  1 has atomic number  1 and mass   1.00783

 Molecular mass:    32.02621 amu.
 Principal axes and moments of inertia in atomic units:
                           1         2         3
     EIGENVALUES --    14.08087  73.18652  75.79067
           X           -0.05453   0.99851   0.00000
           Y            0.99851   0.05453   0.00000
           Z            0.00000   0.00000   1.00000
 This molecule is an asymmetric top.
 Rotational symmetry number  1.
 Rotational temperatures (Kelvin)      6.15117     1.18347     1.14280
 Rotational constants (GHZ):         128.16973    24.65948    23.81218
 Zero-point vibrational energy     133998.4 (Joules/Mol)
                                   32.02639 (Kcal/Mol)
 Warning -- explicit consideration of   1 degrees of freedom as
           vibrations may cause significant error
 Vibrational temperatures:    427.94  1501.01  1540.57  1681.40  1951.03
          (Kelvin)           2129.88  2151.21  2167.19  4300.99  4368.65
                             4477.94  5534.77

 Zero-point correction=                           0.051037 (Hartree/Particle)
 Thermal correction to Energy=                    0.054395
 Thermal correction to Enthalpy=                  0.055340
 Thermal correction to Gibbs Free Energy=         0.028254
 Sum of electronic and zero-point Energies=           -115.713906
 Sum of electronic and thermal Energies=              -115.710548
 Sum of electronic and thermal Enthalpies=            -115.709604
 Sum of electronic and thermal Free Energies=         -115.736689

                     E (Thermal)             CV                S
                      KCal/Mol        Cal/Mol-Kelvin    Cal/Mol-Kelvin
 Total                   34.134              8.858             57.006
 Electronic               0.000              0.000              0.000
 Translational            0.889              2.981             36.324
 Rotational               0.889              2.981             18.997
 Vibrational             32.356              2.896              1.685
 Vibration  1             0.691              1.679              1.431

 Optimization completed.
    -- Stationary point found.
 Normal termination of Gaussian 03 at Tue Mar 20 15:52:51 2012.
