 Gaussian 03, Revision C.02,
 Gaussian 03:  AM64L-G03RevC.02 12-Jun-2004

 ----------------------------------------------------
 # B3LYP 6-311+G** geom=checkpoint freq pop=none test
 ----------------------------------------------------

 *** Vibrations H2O **** 0 1
 ---------------------------
 Z-Matrix taken from the checkpoint file:
 geom.chk
 Charge =  0 Multiplicity = 1

                         Standard orientation:
 ---------------------------------------------------------------------
 Center     Atomic     Atomic              Coordinates (Angstroms)
 Number     Number      Type              X           Y           Z
 ---------------------------------------------------------------------
    1          6             0        0.000000    0.000000    0.000000
    2          1             0        0.629846    0.629846    0.629846
    3          1             0       -0.629846   -0.629846    0.629846
    4          1             0       -0.629846    0.629846   -0.629846
    5          1             0        0.629846   -0.629846   -0.629846
 ---------------------------------------------------------------------

 SCF Done:  E(RB+HF-LYP) =  -40.5339327525     A.U. after    6 cycles

 Isotropic polarizability for W=    0.000000       14.31 Bohr**3.
 End of Minotr Frequency-dependent properties file   721 does not exist.

                     1                      2                      3
                    T2                     T2                     T2
 Frequencies --  1340.3399              1340.3399              1340.3399
 Red. masses --     1.1799                 1.1799                 1.1799
 Frc consts  --     1.2488                 1.2488                 1.2488
 IR Inten    --    18.6466                18.6466                18.6466

                     4                      5                      6
                     E                      E                     A1
 Frequencies --  1557.8868              1557.8868              3023.9782
 Red. masses --     1.0078                 1.0078                 1.0078
 Frc consts  --     1.4411                 1.4411                 5.4299
 IR Inten    --     0.0000                 0.0000                 0.0000

                     7                      8                      9
                    T2                     T2                     T2
 Frequencies --  3129.6544              3129.6544              3129.6544
 Red. masses --     1.1009                 1.1009                 1.1009
 Frc consts  --     6.3531                 6.3531                 6.3531
 IR Inten    --    25.4865                25.4865                25.4865

 - Thermochemistry -
 -------------------
 Temperature   298.150 Kelvin.  Pressure   1.00000 Atm.
 Atom  1 has atomic number  6 and mass  12.00000

 Molecular mass:    16.03130 amu.
 Principal axes and moments of inertia in atomic units:
                           1         2         3
     EIGENVALUES --    11.42200  11.42200  11.42200
           X            0.97511   0.00000   0.22172
           Y           -0.22172   0.00000   0.97511
           Z            0.00000   1.00000   0.00000
 This molecule is a spherical top.
 Rotational symmetry number 12.
 Rotational temperatures (Kelvin)      7.58307     7.58307     7.58307
 Rotational constants (GHZ):         158.00573   158.00573   158.00573
 Zero-point vibrational energy     116933.4 (Joules/Mol)
                                   27.94775 (Kcal/Mol)
 Vibrational temperatures:   1928.45  1928.45  1928.45  2241.45  2241.45
          (Kelvin)           4350.82  4502.87  4502.87  4502.87

 Zero-point correction=                           0.044538 (Hartree/Particle)
 Thermal correction to Energy=                    0.047406
 Thermal correction to Enthalpy=                  0.048351
 Thermal correction to Gibbs Free Energy=         0.027220
 Sum of electronic and zero-point Energies=            -40.489395
 Sum of electronic and thermal Energies=               -40.486526
 Sum of electronic and thermal Enthalpies=             -40.485582
 Sum of electronic and thermal Free Energies=          -40.506713

                     E (Thermal)             CV                S
                      KCal/Mol        Cal/Mol-Kelvin    Cal/Mol-Kelvin
 Total                   29.748              6.473             44.474
 Electronic               0.000              0.000              0.000
 Translational            0.889              2.981             34.261
 Rotational               0.889              2.981             10.125
 Vibrational             27.970              0.511              0.088

 Optimization completed.
    -- Stationary point found.
 Normal termination of Gaussian 03 at Sun Mar 18 11:26:51 2012.
