 Gaussian 03, Revision C.02,
 Gaussian 03:  AM64L-G03RevC.02 12-Jun-2004

 ----------------------------------------------------
 # B3LYP 6-311+G** geom=checkpoint freq pop=none test
 ----------------------------------------------------

 *** Vibrations NH3 **** 0 1
 ---------------------------
 Z-Matrix taken from the checkpoint file:
 geom.chk
 Charge =  0 Multiplicity = 1

                         Standard orientation:
 ---------------------------------------------------------------------
 Center     Atomic     Atomic              Coordinates (Angstroms)
 Number     Number      Type              X           Y           Z
 ---------------------------------------------------------------------
    1          6             0        0.000000    0.663834    0.962268
    2          6             0        0.000000   -0.663834    0.962268
    3          1             0        0.000000    1.215302    1.892350
    4          1             0        0.000000   -1.215302    1.892350
    5         17             0        0.000000    1.667438   -0.450939
    6         17             0        0.000000   -1.667438   -0.450939
 ---------------------------------------------------------------------

 SCF Done:  E(RB+HF-LYP) =  -997.859721742     A.U. after   11 cycles

 Isotropic polarizability for W=    0.000000       47.26 Bohr**3.
 End of Minotr Frequency-dependent properties file   721 does not exist.

                     1                      2                      3
                    A1                     A2                     B2
 Frequencies --   168.1911               419.1302               569.9147
 Red. masses --    26.3408                 3.8456                 9.3527
 Frc consts  --     0.4390                 0.3980                 1.7898
 IR Inten    --     0.2452                 0.0000                 7.3877

                     4                      5                      6
                    A1                     B1                     B2
 Frequencies --   702.4949               711.5259               845.8856
 Red. masses --     9.0685                 1.2289                 4.5549
 Frc consts  --     2.6368                 0.3665                 1.9202
 IR Inten    --    23.1339                69.9875                98.3837

                     7                      8                      9
                    A2                     A1                     B2
 Frequencies --   907.0055              1218.9807              1319.0929
 Red. masses --     1.2516                 1.0450                 1.2183
 Frc consts  --     0.6067                 0.9149                 1.2490
 IR Inten    --     0.0000                 0.0309                27.0188

                    10                     11                     12
                    A1                     B2                     A1
 Frequencies --  1647.0519              3201.6124              3222.4883
 Red. masses --     7.6107                 1.0848                 1.0998
 Frc consts  --    12.1644                 6.5516                 6.7289
 IR Inten    --    42.4858                15.1418                 1.3258

 - Thermochemistry -
 -------------------
 Temperature   298.150 Kelvin.  Pressure   1.00000 Atm.
 Atom  1 has atomic number  6 and mass  12.00000

 Molecular mass:    95.95336 amu.
 Principal axes and moments of inertia in atomic units:
                           1         2         3
     EIGENVALUES --   155.12449 742.79786 897.92235
           X            0.00000   0.00000   1.00000
           Y            1.00000   0.00000   0.00000
           Z            0.00000   1.00000   0.00000
 This molecule is an asymmetric top.
 Rotational symmetry number  2.
 Rotational temperatures (Kelvin)      0.55835     0.11660     0.09646
 Rotational constants (GHZ):          11.63415     2.42965     2.00991
 Zero-point vibrational energy      89321.4 (Joules/Mol)
                                   21.34833 (Kcal/Mol)
 Warning -- explicit consideration of   3 degrees of freedom as
           vibrations may cause significant error
 Vibrational temperatures:    241.99   603.03   819.98  1010.73  1023.73
          (Kelvin)           1217.04  1304.98  1753.84  1897.88  2369.74
                             4606.40  4636.44

 Zero-point correction=                           0.034021 (Hartree/Particle)
 Thermal correction to Energy=                    0.038301
 Thermal correction to Enthalpy=                  0.039245
 Thermal correction to Gibbs Free Energy=         0.006373
 Sum of electronic and zero-point Energies=           -997.825701
 Sum of electronic and thermal Energies=              -997.821421
 Sum of electronic and thermal Enthalpies=            -997.820476
 Sum of electronic and thermal Free Energies=         -997.853349

                     E (Thermal)             CV                S
                      KCal/Mol        Cal/Mol-Kelvin    Cal/Mol-Kelvin
 Total                   24.034             13.445             69.186
 Electronic               0.000              0.000              0.000
 Translational            0.889              2.981             39.595
 Rotational               0.889              2.981             24.762
 Vibrational             22.257              7.483              4.829
 Vibration  1             0.625              1.882              2.456
 Vibration  2             0.782              1.429              0.895
 Vibration  3             0.926              1.096              0.504

 Optimization completed.
    -- Stationary point found.
 Normal termination of Gaussian 03 at Sun Apr  1 15:21:30 2012.
