 Gaussian 03, Revision C.02,
 Gaussian 03:  AM64L-G03RevC.02 12-Jun-2004

 ----------------------------------------------------
 # B3LYP 6-311+G** geom=checkpoint freq pop=none test
 ----------------------------------------------------

 *** Vibrations NH3 **** 0 1
 ---------------------------
 Z-Matrix taken from the checkpoint file:
 geom.chk
 Charge =  0 Multiplicity = 1

                         Standard orientation:
 ---------------------------------------------------------------------
 Center     Atomic     Atomic              Coordinates (Angstroms)
 Number     Number      Type              X           Y           Z
 ---------------------------------------------------------------------
    1          6             0       -0.366492    0.551740    0.000000
    2          6             0        0.366492   -0.551740    0.000000
    3          1             0       -1.446784    0.565904    0.000000
    4          1             0        1.446784   -0.565904    0.000000
    5         17             0        0.366492    2.134314    0.000000
    6         17             0       -0.366492   -2.134314    0.000000
 ---------------------------------------------------------------------

 SCF Done:  E(RB+HF-LYP) =  -997.859319290     A.U. after   10 cycles

 Isotropic polarizability for W=    0.000000       48.65 Bohr**3.
 End of Minotr Frequency-dependent properties file   721 does not exist.

                     1                      2                      3
                    AU                     BU                     AG
 Frequencies --   212.1047               237.9103               348.4450
 Red. masses --     8.3811                 6.5594                20.3887
 Frc consts  --     0.2222                 0.2187                 1.4585
 IR Inten    --     0.1436                 3.2896                 0.0000

                     4                      5                      6
                    BG                     BU                     AG
 Frequencies --   793.3262               803.1429               843.1984
 Red. masses --     1.8222                10.1483                 4.6779
 Frc consts  --     0.6757                 3.8568                 1.9596
 IR Inten    --     0.0000               146.5608                 0.0000

                     7                      8                      9
                    AU                     BU                     AG
 Frequencies --   928.8631              1225.3837              1303.8071
 Red. masses --     1.0842                 1.0971                 1.1785
 Frc consts  --     0.5512                 0.9706                 1.1803
 IR Inten    --    72.6185                19.5455                 0.0000

                    10                     11                     12
                    AG                     BU                     AG
 Frequencies --  1643.5410              3222.6626              3225.8129
 Red. masses --     6.8263                 1.0861                 1.1031
 Frc consts  --    10.8642                 6.6457                 6.7631
 IR Inten    --     0.0000                15.8205                 0.0000

 - Thermochemistry -
 -------------------
 Temperature   298.150 Kelvin.  Pressure   1.00000 Atm.
 Atom  1 has atomic number  6 and mass  12.00000

 Molecular mass:    95.95336 amu.
 Principal axes and moments of inertia in atomic units:
                           1         2         3
     EIGENVALUES --    33.952221192.261851226.21406
           X            0.15032   0.98864   0.00000
           Y            0.98864  -0.15032   0.00000
           Z            0.00000   0.00000   1.00000
 This molecule is an asymmetric top.
 Rotational symmetry number  2.
 Rotational temperatures (Kelvin)      2.55105     0.07265     0.07064
 Rotational constants (GHZ):          53.15532     1.51371     1.47180
 Zero-point vibrational energy      88453.1 (Joules/Mol)
                                   21.14079 (Kcal/Mol)
 Warning -- explicit consideration of   3 degrees of freedom as
           vibrations may cause significant error
 Vibrational temperatures:    305.17   342.30   501.33  1141.42  1155.54
          (Kelvin)           1213.17  1336.43  1763.05  1875.89  2364.69
                             4636.69  4641.22

 Zero-point correction=                           0.033690 (Hartree/Particle)
 Thermal correction to Energy=                    0.038233
 Thermal correction to Enthalpy=                  0.039177
 Thermal correction to Gibbs Free Energy=         0.006188
 Sum of electronic and zero-point Energies=           -997.825629
 Sum of electronic and thermal Energies=              -997.821086
 Sum of electronic and thermal Enthalpies=            -997.820142
 Sum of electronic and thermal Free Energies=         -997.853131

                     E (Thermal)             CV                S
                      KCal/Mol        Cal/Mol-Kelvin    Cal/Mol-Kelvin
 Total                   23.992             13.877             69.432
 Electronic               0.000              0.000              0.000
 Translational            0.889              2.981             39.595
 Rotational               0.889              2.981             24.032
 Vibrational             22.214              7.915              5.805
 Vibration  1             0.643              1.822              2.025
 Vibration  2             0.656              1.783              1.818
 Vibration  3             0.726              1.578              1.173

 Optimization completed.
    -- Stationary point found.
 Normal termination of Gaussian 03 at Sun Apr  1 14:08:25 2012.
