 Gaussian 03, Revision C.02,
 Gaussian 03:  AM64L-G03RevC.02 12-Jun-2004

 ----------------------------------------------------
 # B3LYP 6-311+G** geom=checkpoint freq pop=none test
 ----------------------------------------------------

 *** Vibrations NH3 **** 0 1
 ---------------------------
 Z-Matrix taken from the checkpoint file:
 geom.chk
 Charge =  0 Multiplicity = 1

                         Standard orientation:
 ---------------------------------------------------------------------
 Center     Atomic     Atomic              Coordinates (Angstroms)
 Number     Number      Type              X           Y           Z
 ---------------------------------------------------------------------
    1          6             0        0.000000    0.000000    0.453502
    2          1             0        0.000000    0.000000    1.535624
    3         17             0        0.000000    1.703539   -0.083463
    4         17             0        1.475308   -0.851769   -0.083463
    5         17             0       -1.475308   -0.851769   -0.083463
 ---------------------------------------------------------------------

 SCF Done:  E(RB+HF-LYP) =  -1419.37966647     A.U. after   10 cycles

 Isotropic polarizability for W=    0.000000       48.77 Bohr**3.
 End of Minotr Frequency-dependent properties file   721 does not exist.

                     1                      2                      3
                     E                      E                     A1
 Frequencies --   261.3401               261.3418               364.9161
 Red. masses --    26.0608                26.0606                21.3075
 Frc consts  --     1.0487                 1.0487                 1.6717
 IR Inten    --     0.0028                 0.0026                 0.2207

                     4                      5                      6
                    A1                      E                      E
 Frequencies --   661.8572               729.6313               729.6497
 Red. masses --     7.9908                 9.5981                 9.5985
 Frc consts  --     2.0624                 3.0105                 3.0108
 IR Inten    --     5.2906               191.1236               191.1241

                     7                      8                      9
                     E                      E                     A1
 Frequencies --  1246.3822              1246.3943              3184.3194
 Red. masses --     1.0729                 1.0729                 1.0890
 Frc consts  --     0.9820                 0.9820                 6.5059
 IR Inten    --    27.4635                27.4534                 0.1251

 - Thermochemistry -
 -------------------
 Temperature   298.150 Kelvin.  Pressure   1.00000 Atm.
 Atom  1 has atomic number  6 and mass  12.00000

 Molecular mass:   117.91438 amu.
 Principal axes and moments of inertia in atomic units:
                           1         2         3
     EIGENVALUES --   563.40921 563.409211087.18748
           X            0.14422   0.98955   0.00000
           Y            0.98955  -0.14422   0.00000
           Z            0.00000   0.00000   1.00000
 This molecule is an oblate symmetric top.
 Rotational symmetry number  3.
 Warning -- assumption of classical behavior for rotation
           may cause significant error
 Rotational temperatures (Kelvin)      0.15373     0.15373     0.07967
 Rotational constants (GHZ):           3.20325     3.20325     1.66001
 Zero-point vibrational energy      51952.8 (Joules/Mol)
                                   12.41702 (Kcal/Mol)
 Warning -- explicit consideration of   3 degrees of freedom as
           vibrations may cause significant error
 Vibrational temperatures:    376.01   376.01   525.03   952.26  1049.78
          (Kelvin)           1049.80  1793.26  1793.28  4581.52

 Zero-point correction=                           0.019788 (Hartree/Particle)
 Thermal correction to Energy=                    0.024266
 Thermal correction to Enthalpy=                  0.025211
 Thermal correction to Gibbs Free Energy=        -0.008399
 Sum of electronic and zero-point Energies=          -1419.359879
 Sum of electronic and thermal Energies=             -1419.355400
 Sum of electronic and thermal Enthalpies=           -1419.354456
 Sum of electronic and thermal Free Energies=        -1419.388066

                     E (Thermal)             CV                S
                      KCal/Mol        Cal/Mol-Kelvin    Cal/Mol-Kelvin
 Total                   15.227             13.797             70.738
 Electronic               0.000              0.000              0.000
 Translational            0.889              2.981             40.209
 Rotational               0.889              2.981             25.153
 Vibrational             13.450              7.836              5.375
 Vibration  1             0.669              1.744              1.653
 Vibration  2             0.669              1.744              1.653
 Vibration  3             0.738              1.544              1.101

 Optimization completed.
    -- Stationary point found.
 Normal termination of Gaussian 03 at Sun Mar 18 11:20:46 2012.
