 Gaussian 03, Revision C.02,
 Gaussian 03:  AM64L-G03RevC.02 12-Jun-2004

 ----------------------------------------------------
 # B3LYP 6-311+G** geom=checkpoint freq pop=none test
 ----------------------------------------------------

 *** Vibrations CO2 **** 0 1
 ---------------------------
 Redundant internal coordinates taken from checkpoint file:
 geom.chk
 Charge =  0 Multiplicity = 1

                         Standard orientation:
 ---------------------------------------------------------------------
 Center     Atomic     Atomic              Coordinates (Angstroms)
 Number     Number      Type              X           Y           Z
 ---------------------------------------------------------------------
    1          6             0        0.000000    0.000000    0.000000
    2          8             0        0.000000    0.000000    1.160766
    3          8             0        0.000000    0.000000   -1.160766
 ---------------------------------------------------------------------

 SCF Done:  E(RB+HF-LYP) =  -188.646914788     A.U. after    8 cycles

 Isotropic polarizability for W=    0.000000       14.65 Bohr**3.
 End of Minotr Frequency-dependent properties file   721 does not exist.

                     1                      2                      3
                    PIU                    PIU                    SGG
 Frequencies --   668.4972               668.4972              1373.1232
 Red. masses --    12.8774                12.8774                15.9949
 Frc consts  --     3.3906                 3.3906                17.7685
 IR Inten    --    33.0546                33.0546                 0.0000

                     4
                    SGU
 Frequencies --  2420.3222
 Red. masses --    12.8774
 Frc consts  --    44.4451
 IR Inten    --   711.6971

 - Thermochemistry -
 -------------------
 Temperature   298.150 Kelvin.  Pressure   1.00000 Atm.
 Atom  1 has atomic number  6 and mass  12.00000

 Molecular mass:    43.98983 amu.
 Principal axes and moments of inertia in atomic units:
                           1         2         3
     EIGENVALUES --     0.00000 153.92151 153.92151
           X            0.00000   0.40438   0.91459
           Y            0.00000   0.91459  -0.40438
           Z            1.00000   0.00000   0.00000
 This molecule is a prolate symmetric top.
 Rotational symmetry number  2.
 Rotational temperature (Kelvin)      0.56271
 Rotational constant (GHZ):          11.725075
 Zero-point vibrational energy      30686.8 (Joules/Mol)
                                    7.33433 (Kcal/Mol)
 Vibrational temperatures:    961.82   961.82  1975.62  3482.30
          (Kelvin)

 Zero-point correction=                           0.011688 (Hartree/Particle)
 Thermal correction to Energy=                    0.014309
 Thermal correction to Enthalpy=                  0.015253
 Thermal correction to Gibbs Free Energy=        -0.009006
 Sum of electronic and zero-point Energies=           -188.635227
 Sum of electronic and thermal Energies=              -188.632606
 Sum of electronic and thermal Enthalpies=            -188.631662
 Sum of electronic and thermal Free Energies=         -188.655920

                     E (Thermal)             CV                S
                      KCal/Mol        Cal/Mol-Kelvin    Cal/Mol-Kelvin
 Total                    8.979              6.868             51.057
 Electronic               0.000              0.000              0.000
 Translational            0.889              2.981             37.270
 Rotational               0.592              1.987             13.075
 Vibrational              7.498              1.900              0.712

 Optimization completed.
    -- Stationary point found.
 Normal termination of Gaussian 03 at Sun Mar 18 10:47:26 2012.
