 Gaussian 03, Revision C.02,
 Gaussian 03:  AM64L-G03RevC.02 12-Jun-2004

 ----------------------------------------------------
 # B3LYP 6-311+G** geom=checkpoint freq pop=none test
 ----------------------------------------------------

 ----------------------------------
 No Z-matrix found on checkpoint file.
 Cartesian coordinates read from the checkpoint file:
 geom.chk
 Charge =  0 Multiplicity = 1

                         Standard orientation:
 ---------------------------------------------------------------------
 Center     Atomic     Atomic              Coordinates (Angstroms)
 Number     Number      Type              X           Y           Z
 ---------------------------------------------------------------------
    1          6             0       -1.043220    1.030768    0.227663
    2          6             0       -1.414508   -0.387823   -0.227721
    3          6             0       -0.371269   -1.418539    0.227746
    4          6             0        1.043196   -1.030754   -0.227765
    5          6             0        1.414511    0.387787    0.227757
    6          6             0        0.371306    1.418544   -0.227678
    7          1             0       -1.773663    1.753208   -0.151055
    8          1             0       -1.096174    1.083077    1.323615
    9          1             0       -1.486535   -0.407704   -1.323602
   10          1             0       -2.405250   -0.659501    0.151231
   11          1             0       -0.389820   -1.489874    1.323699
   12          1             0       -0.631650   -2.412596   -0.150443
   13          1             0        1.773708   -1.753248    0.150693
   14          1             0        1.095937   -1.082884   -1.323740
   15          1             0        2.405275    0.659500   -0.151105
   16          1             0        1.486470    0.407554    1.323647
   17          1             0        0.389960    1.490014   -1.323619
   18          1             0        0.631644    2.412562    0.150657
 ---------------------------------------------------------------------

 SCF Done:  E(RB+HF-LYP) =  -235.944875390     A.U. after    9 cycles

 Isotropic polarizability for W=    0.000000       69.34 Bohr**3.
 End of Minotr Frequency-dependent properties file   721 does not exist.

                     1                      2                      3
                     A                      A                      A
 Frequencies --   229.1240               233.3535               371.6595
 Red. masses --     1.7574                 1.7563                 1.5353
 Frc consts  --     0.0544                 0.0563                 0.1249
 IR Inten    --     0.0007                 0.0004                 0.0000

                     4                      5                      6
                     A                      A                      A
 Frequencies --   432.2353               436.3592               519.5977
 Red. masses --     2.9690                 2.9826                 1.3079
 Frc consts  --     0.3268                 0.3346                 0.2080
 IR Inten    --     0.0000                 0.0000                 0.6056

                     7                      8                      9
                     A                      A                      A
 Frequencies --   794.2187               796.2026               800.3715
 Red. masses --     1.4594                 1.4525                 3.5635
 Frc consts  --     0.5424                 0.5425                 1.3450
 IR Inten    --     0.0000                 0.0000                 0.0000

                    10                     11                     12
                     A                      A                      A
 Frequencies --   864.5612               868.9829               917.8622
 Red. masses --     2.4430                 2.4262                 1.2923
 Frc consts  --     1.0759                 1.0794                 0.6415
 IR Inten    --     2.0958                 2.1674                 2.0956

                    13                     14                     15
                     A                      A                      A
 Frequencies --   920.1438              1036.0602              1039.4207
 Red. masses --     1.2924                 1.7624                 1.7511
 Frc consts  --     0.6447                 1.1146                 1.1147
 IR Inten    --     2.0278                 0.0000                 0.0000

                    16                     17                     18
                     A                      A                      A
 Frequencies --  1041.6490              1079.1421              1099.9365
 Red. masses --     2.6255                 1.0107                 2.8944
 Frc consts  --     1.6784                 0.6935                 2.0632
 IR Inten    --     2.6257                 0.0000                 0.0005

                    19                     20                     21
                     A                      A                      A
 Frequencies --  1129.9837              1179.7301              1287.4499
 Red. masses --     1.0382                 2.2569                 1.2876
 Frc consts  --     0.7811                 1.8507                 1.2575
 IR Inten    --     0.0000                 0.0000                 1.6878

                    22                     23                     24
                     A                      A                      A
 Frequencies --  1288.0781              1291.7425              1293.1950
 Red. masses --     1.2879                 1.2462                 1.2444
 Frc consts  --     1.2590                 1.2252                 1.2262
 IR Inten    --     1.6900                 0.0000                 0.0000

                    25                     26                     27
                     A                      A                      A
 Frequencies --  1350.2291              1372.7738              1377.3897
 Red. masses --     1.3047                 1.3168                 1.4802
 Frc consts  --     1.4014                 1.4621                 1.6546
 IR Inten    --     0.0000                 0.0002                 0.0000

                    28                     29                     30
                     A                      A                      A
 Frequencies --  1379.0533              1383.8947              1385.6986
 Red. masses --     1.4960                 1.4321                 1.4381
 Frc consts  --     1.6762                 1.6160                 1.6270
 IR Inten    --     0.0000                 0.1288                 0.1305

                    31                     32                     33
                     A                      A                      A
 Frequencies --  1484.8091              1485.9754              1489.6692
 Red. masses --     1.0869                 1.0859                 1.0971
 Frc consts  --     1.4118                 1.4127                 1.4344
 IR Inten    --     0.0000                 0.0000                 6.4366

                    34                     35                     36
                     A                      A                      A
 Frequencies --  1491.2559              1494.7086              1509.4268
 Red. masses --     1.0973                 1.0787                 1.0987
 Frc consts  --     1.4377                 1.4199                 1.4749
 IR Inten    --     6.3918                15.1157                 0.0000

                    37                     38                     39
                     A                      A                      A
 Frequencies --  2990.9850              2991.4077              2992.1398
 Red. masses --     1.0710                 1.0708                 1.0748
 Frc consts  --     5.6450                 5.6457                 5.6693
 IR Inten    --    25.4265                26.1177                 0.0039

                    40                     41                     42
                     A                      A                      A
 Frequencies --  2999.3769              2999.6168              3003.5443
 Red. masses --     1.0626                 1.0624                 1.0597
 Frc consts  --     5.6324                 5.6322                 5.6326
 IR Inten    --     0.0001                 0.0000                87.5089

                    43                     44                     45
                     A                      A                      A
 Frequencies --  3044.2162              3044.4315              3045.5569
 Red. masses --     1.0906                 1.0903                 1.1015
 Frc consts  --     5.9548                 5.9541                 6.0193
 IR Inten    --   129.2342               129.9268                 0.0169

                    46                     47                     48
                     A                      A                      A
 Frequencies --  3045.6723              3048.6587              3052.8815
 Red. masses --     1.1012                 1.0863                 1.1047
 Frc consts  --     6.0185                 5.9489                 6.0660
 IR Inten    --     0.0213                 0.0066               147.4015

 - Thermochemistry -
 -------------------
 Temperature   298.150 Kelvin.  Pressure   1.00000 Atm.
 Atom  1 has atomic number  6 and mass  12.00000

 Molecular mass:    84.09390 amu.
 Principal axes and moments of inertia in atomic units:
                           1         2         3
     EIGENVALUES --   420.83937 421.03455 738.55619
           X            0.99992   0.01247  -0.00001
           Y           -0.01247   0.99992   0.00000
           Z            0.00001   0.00000   1.00000
 This molecule is an asymmetric top.
 Rotational symmetry number  1.
 Rotational temperatures (Kelvin)      0.20581     0.20572     0.11727
 Rotational constants (GHZ):           4.28843     4.28644     2.44361
 Zero-point vibrational energy     445097.1 (Joules/Mol)
                                  106.38077 (Kcal/Mol)
 Warning -- explicit consideration of   6 degrees of freedom as
           vibrations may cause significant error
 Vibrational temperatures:    329.66   335.74   534.73   621.89   627.82
          (Kelvin)            747.58  1142.70  1145.56  1151.55  1243.91
                             1250.27  1320.60  1323.88  1490.66  1495.49
                             1498.70  1552.64  1582.56  1625.79  1697.37
                             1852.35  1853.25  1858.53  1860.62  1942.68
                             1975.11  1981.75  1984.15  1991.11  1993.71
                             2136.31  2137.98  2143.30  2145.58  2150.55
                             2171.73  4303.36  4303.96  4305.02  4315.43
                             4315.77  4321.43  4379.94  4380.25  4381.87
                             4382.04  4386.33  4392.41

 Zero-point correction=                           0.169529 (Hartree/Particle)
 Thermal correction to Energy=                    0.175266
 Thermal correction to Enthalpy=                  0.176210
 Thermal correction to Gibbs Free Energy=         0.140731
 Sum of electronic and zero-point Energies=           -235.775347
 Sum of electronic and thermal Energies=              -235.769610
 Sum of electronic and thermal Enthalpies=            -235.768666
 Sum of electronic and thermal Free Energies=         -235.804144

                     E (Thermal)             CV                S
                      KCal/Mol        Cal/Mol-Kelvin    Cal/Mol-Kelvin
 Total                  109.981             22.916             74.671
 Electronic               0.000              0.000              0.000
 Translational            0.889              2.981             39.202
 Rotational               0.889              2.981             26.373
 Vibrational            108.203             16.954              9.096
 Vibration  1             0.652              1.797              1.886
 Vibration  2             0.654              1.790              1.853
 Vibration  3             0.743              1.530              1.073
 Vibration  4             0.793              1.400              0.851
 Vibration  5             0.797              1.391              0.838
 Vibration  6             0.875              1.207              0.611

 Normal termination of Gaussian 03 at Mon Oct 22 14:29:11 2012.
