 Gaussian 03, Revision C.02,
 Gaussian 03:  AM64L-G03RevC.02 12-Jun-2004

 ----------------------------------------------------
 # B3LYP 6-311+G** geom=checkpoint freq pop=none test
 ----------------------------------------------------

 *** Vibrations H2CO **** 0 1
 ----------------------------
 Z-Matrix taken from the checkpoint file:
 geom.chk
 Charge =  0 Multiplicity = 1

                         Standard orientation:
 ---------------------------------------------------------------------
 Center     Atomic     Atomic              Coordinates (Angstroms)
 Number     Number      Type              X           Y           Z
 ---------------------------------------------------------------------
    1          6             0        0.000000    0.000000   -0.527458
    2          8             0        0.000000    0.000000    0.674312
    3          1             0        0.000000    0.939977   -1.114874
    4          1             0        0.000000   -0.939977   -1.114874
 ---------------------------------------------------------------------

 SCF Done:  E(RB+HF-LYP) =  -114.541755779     A.U. after    9 cycles

 Isotropic polarizability for W=    0.000000       15.46 Bohr**3.
 End of Minotr Frequency-dependent properties file   721 does not exist.

                     1                      2                      3
                    B1                     B2                     A1
 Frequencies --  1198.7162              1259.7228              1530.6279
 Red. masses --     1.3680                 1.3442                 1.1045
 Frc consts  --     1.1582                 1.2568                 1.5246
 IR Inten    --     5.0180                 9.3945                 9.1309

                     4                      5                      6
                    A1                     A1                     B2
 Frequencies --  1814.4851              2882.8837              2940.3611
 Red. masses --     7.5139                 1.0432                 1.1205
 Frc consts  --    14.5755                 5.1084                 5.7077
 IR Inten    --   122.9457                70.5036               132.7430

 - Thermochemistry -
 -------------------
 Temperature   298.150 Kelvin.  Pressure   1.00000 Atm.
 Atom  1 has atomic number  6 and mass  12.00000

 Molecular mass:    30.01056 amu.
 Principal axes and moments of inertia in atomic units:
                           1         2         3
     EIGENVALUES --     6.35985  46.26002  52.61987
           X            0.00000   0.00000   1.00000
           Y            0.00000   1.00000   0.00000
           Z            1.00000   0.00000   0.00000
 This molecule is an asymmetric top.
 Rotational symmetry number  2.
 Rotational temperatures (Kelvin)     13.61884     1.87233     1.64603
 Rotational constants (GHZ):         283.77099    39.01298    34.29771
 Zero-point vibrational energy      69543.7 (Joules/Mol)
                                   16.62134 (Kcal/Mol)
 Vibrational temperatures:   1724.68  1812.46  2202.23  2610.64  4147.82
          (Kelvin)           4230.52

 Zero-point correction=                           0.026488 (Hartree/Particle)
 Thermal correction to Energy=                    0.029356
 Thermal correction to Enthalpy=                  0.030300
 Thermal correction to Gibbs Free Energy=         0.005485
 Sum of electronic and zero-point Energies=           -114.515268
 Sum of electronic and thermal Energies=              -114.512400
 Sum of electronic and thermal Enthalpies=            -114.511456
 Sum of electronic and thermal Free Energies=         -114.536271

                     E (Thermal)             CV                S
                      KCal/Mol        Cal/Mol-Kelvin    Cal/Mol-Kelvin
 Total                   18.421              6.428             52.229
 Electronic               0.000              0.000              0.000
 Translational            0.889              2.981             36.130
 Rotational               0.889              2.981             16.011
 Vibrational             16.644              0.467              0.087

 Optimization completed.
    -- Stationary point found.
 Normal termination of Gaussian 03 at Sun Mar 18 11:28:31 2012.
