 Gaussian 03, Revision C.02,
 Gaussian 03:  AM64L-G03RevC.02 12-Jun-2004

 ----------------------------------------------------
 # B3LYP 6-311+G** geom=checkpoint freq pop=none test
 ----------------------------------------------------

 *** Vibrations NH3 **** 0 1
 ---------------------------
 Z-Matrix taken from the checkpoint file:
 geom.chk
 Charge =  0 Multiplicity = 1

                         Standard orientation:
 ---------------------------------------------------------------------
 Center     Atomic     Atomic              Coordinates (Angstroms)
 Number     Number      Type              X           Y           Z
 ---------------------------------------------------------------------
    1          7             0        0.000000    0.000000    0.109093
    2          1             0        0.000000    0.947280   -0.254549
    3          1             0        0.820369   -0.473640   -0.254549
    4          1             0       -0.820369   -0.473640   -0.254549
 ---------------------------------------------------------------------

 SCF Done:  E(RB+HF-LYP) =  -56.5826357941     A.U. after   10 cycles

 Isotropic polarizability for W=    0.000000       11.62 Bohr**3.
 End of Minotr Frequency-dependent properties file   721 does not exist.

                     1                      2                      3
                    A1                      E                      E
 Frequencies --  1003.6158              1666.5745              1666.5746
 Red. masses --     1.1836                 1.0681                 1.0681
 Frc consts  --     0.7024                 1.7479                 1.7479
 IR Inten    --   217.1014                26.4213                26.4208

                     4                      5                      6
                    A1                      E                      E
 Frequencies --  3477.5533              3604.7365              3604.7368
 Red. masses --     1.0245                 1.0909                 1.0909
 Frc consts  --     7.2997                 8.3521                 8.3521
 IR Inten    --     3.0621                 3.7217                 3.7212

 - Thermochemistry -
 -------------------
 Temperature   298.150 Kelvin.  Pressure   1.00000 Atm.
 Atom  1 has atomic number  7 and mass  14.00307

 Molecular mass:    17.02655 amu.
 Principal axes and moments of inertia in atomic units:
                           1         2         3
     EIGENVALUES --     6.01852   6.01852   9.68860
           X            0.68736   0.72631   0.00000
           Y            0.72631  -0.68736   0.00000
           Z            0.00000   0.00000   1.00000
 This molecule is an oblate symmetric top.
 Rotational symmetry number  3.
 Rotational temperatures (Kelvin)     14.39122    14.39122     8.93977
 Rotational constants (GHZ):         299.86472   299.86472   186.27472
 Zero-point vibrational energy      89862.2 (Joules/Mol)
                                   21.47759 (Kcal/Mol)
 Vibrational temperatures:   1443.98  2397.83  2397.83  5003.42  5186.41
          (Kelvin)           5186.41

 Zero-point correction=                           0.034227 (Hartree/Particle)
 Thermal correction to Energy=                    0.037100
 Thermal correction to Enthalpy=                  0.038045
 Thermal correction to Gibbs Free Energy=         0.016195
 Sum of electronic and zero-point Energies=            -56.548409
 Sum of electronic and thermal Energies=               -56.545535
 Sum of electronic and thermal Enthalpies=             -56.544591
 Sum of electronic and thermal Free Energies=          -56.566441

                     E (Thermal)             CV                S
                      KCal/Mol        Cal/Mol-Kelvin    Cal/Mol-Kelvin
 Total                   23.281              6.418             45.987
 Electronic               0.000              0.000              0.000
 Translational            0.889              2.981             34.441
 Rotational               0.889              2.981             11.443
 Vibrational             21.503              0.456              0.104

 Optimization completed.
    -- Stationary point found.
 Normal termination of Gaussian 03 at Sun Mar 18 11:08:20 2012.
