 Gaussian 03, Revision C.02,
 Gaussian 03:  AM64L-G03RevC.02 12-Jun-2004

 ----------------------------------------------------
 # B3LYP 6-311+G** geom=checkpoint freq pop=none test
 ----------------------------------------------------

 *** Vibrations H2O **** 0 1
 ---------------------------
 Z-Matrix taken from the checkpoint file:
 geom.chk
 Charge =  0 Multiplicity = 1

                         Standard orientation:
 ---------------------------------------------------------------------
 Center     Atomic     Atomic              Coordinates (Angstroms)
 Number     Number      Type              X           Y           Z
 ---------------------------------------------------------------------
    1          8             0        0.000000    0.000000    0.428461
    2          8             0        0.000000    1.079300   -0.214230
    3          8             0        0.000000   -1.079300   -0.214230
 ---------------------------------------------------------------------

 SCF Done:  E(RB+HF-LYP) =  -225.480560006     A.U. after   11 cycles

 Isotropic polarizability for W=    0.000000       16.33 Bohr**3.
 End of Minotr Frequency-dependent properties file   721 does not exist.

                     1                      2                      3
                    A1                     B2                     A1
 Frequencies --   746.6118              1183.0520              1245.4269
 Red. masses --    15.9949                15.9949                15.9949
 Frc consts  --     5.2532                13.1898                14.6173
 IR Inten    --     8.3146               238.9332                 0.0542

 - Thermochemistry -
 -------------------
 Temperature   298.150 Kelvin.  Pressure   1.00000 Atm.
 Atom  1 has atomic number  8 and mass  15.99491

 Molecular mass:    47.98474 amu.
 Principal axes and moments of inertia in atomic units:
                           1         2         3
     EIGENVALUES --    15.72872 133.07415 148.80287
           X            0.00000   0.00000   1.00000
           Y            1.00000   0.00000   0.00000
           Z            0.00000   1.00000   0.00000
 This molecule is an asymmetric top.
 Rotational symmetry number  2.
 Rotational temperatures (Kelvin)      5.50673     0.65087     0.58207
 Rotational constants (GHZ):         114.74177    13.56192    12.12840
 Zero-point vibrational energy      18991.3 (Joules/Mol)
                                    4.53902 (Kcal/Mol)
 Vibrational temperatures:   1074.21  1702.15  1791.89
          (Kelvin)

 Zero-point correction=                           0.007233 (Hartree/Particle)
 Thermal correction to Energy=                    0.010193
 Thermal correction to Enthalpy=                  0.011137
 Thermal correction to Gibbs Free Energy=        -0.015877
 Sum of electronic and zero-point Energies=           -225.473327
 Sum of electronic and thermal Energies=              -225.470367
 Sum of electronic and thermal Enthalpies=            -225.469423
 Sum of electronic and thermal Free Energies=         -225.496437

                     E (Thermal)             CV                S
                      KCal/Mol        Cal/Mol-Kelvin    Cal/Mol-Kelvin
 Total                    6.396              7.098             56.857
 Electronic               0.000              0.000              0.000
 Translational            0.889              2.981             37.529
 Rotational               0.889              2.981             18.994
 Vibrational              4.619              1.136              0.334

 Optimization completed.
    -- Stationary point found.
 Normal termination of Gaussian 03 at Sun Mar 18 10:49:51 2012.
